M 0.0 nn 3 x 670 y 670 rp DSDV
M 0.0 sc ../ns-allinone-2.35/ns-2.35/tcl/mobility/scene/scen-3-test cp ../ns-allinone-2.35/ns-2.35/tcl/mobility/scene/cbr-3-test seed 0.0
M 0.0 prop Propagation/TwoRayGround ant Antenna/OmniAntenna
s 0.036400876 _0_ RTR  --- 0 message 32 [0 0 0 0] ------- [0:255 -1:255 32 0] 
s 0.182633994 _1_ RTR  --- 1 message 32 [0 0 0 0] ------- [1:255 -1:255 32 0] 
s 0.882774710 _2_ RTR  --- 2 message 32 [0 0 0 0] ------- [2:255 -1:255 32 0] 
M 10.00000 0 (5.00, 2.00, 0.00), (20.00, 18.00), 1.00
s 10.000000000 _0_ AGT  --- 3 tcp 40 [0 0 0 0] ------- [0:1 1:1 32 0] [0 0] 0 1
r 10.000000000 _0_ RTR  --- 3 tcp 40 [0 0 0 0] ------- [0:1 1:1 32 0] [0 0] 0 1
s 12.456252532 _0_ RTR  --- 4 message 32 [0 0 0 0] ------- [0:255 -1:255 32 0] 
s 12.588779220 _1_ RTR  --- 5 message 32 [0 0 0 0] ------- [1:255 -1:255 32 0] 
s 13.000000000 _0_ AGT  --- 6 tcp 40 [0 0 0 0] ------- [0:1 1:1 32 0] [0 0] 0 1
r 13.000000000 _0_ RTR  --- 6 tcp 40 [0 0 0 0] ------- [0:1 1:1 32 0] [0 0] 0 1
s 14.537261645 _2_ RTR  --- 7 message 32 [0 0 0 0] ------- [2:255 -1:255 32 0] 
s 19.000000000 _0_ AGT  --- 8 tcp 40 [0 0 0 0] ------- [0:1 1:1 32 0] [0 0] 0 1
r 19.000000000 _0_ RTR  --- 8 tcp 40 [0 0 0 0] ------- [0:1 1:1 32 0] [0 0] 0 1
s 24.359707261 _0_ RTR  --- 9 message 32 [0 0 0 0] ------- [0:255 -1:255 32 0] 
s 24.810743937 _1_ RTR  --- 10 message 32 [0 0 0 0] ------- [1:255 -1:255 32 0] 
s 28.382793183 _2_ RTR  --- 11 message 32 [0 0 0 0] ------- [2:255 -1:255 32 0] 
s 31.000000000 _0_ AGT  --- 12 tcp 40 [0 0 0 0] ------- [0:1 1:1 32 0] [0 0] 0 1
r 31.000000000 _0_ RTR  --- 12 tcp 40 [0 0 0 0] ------- [0:1 1:1 32 0] [0 0] 0 1
M 33.00000 0 (20.00, 18.00, 0.00), (89.66, 283.49), 19.15
s 36.521045250 _0_ RTR  --- 13 message 32 [0 0 0 0] ------- [0:255 -1:255 32 0] 
s 39.452617400 _1_ RTR  --- 14 message 32 [0 0 0 0] ------- [1:255 -1:255 32 0] 
s 40.333940701 _2_ RTR  --- 15 message 32 [0 0 0 0] ------- [2:255 -1:255 32 0] 
s 48.184867447 _0_ RTR  --- 16 message 32 [0 0 0 0] ------- [0:255 -1:255 32 0] 
M 50.00000 2 (591.26, 199.37, 0.00), (369.46, 170.52), 3.37
M 50.00000 1 (390.00, 385.00, 0.00), (25.00, 20.00), 15.00
M 51.00000 1 (379.39, 374.39, 0.00), (221.83, 80.86), 14.91
s 51.958675641 _1_ RTR  --- 17 message 32 [0 0 0 0] ------- [1:255 -1:255 32 0] 
s 54.209122321 _2_ RTR  --- 18 message 32 [0 0 0 0] ------- [2:255 -1:255 32 0] 
s 55.000000000 _0_ AGT  --- 19 tcp 40 [0 0 0 0] ------- [0:1 1:1 32 0] [0 0] 0 1
r 55.000000000 _0_ RTR  --- 19 tcp 40 [0 0 0 0] ------- [0:1 1:1 32 0] [0 0] 0 1
s 61.522658049 _0_ RTR  --- 20 message 32 [0 0 0 0] ------- [0:255 -1:255 32 0] 
r 61.523518784 _1_ RTR  --- 20 message 32 [0 ffffffff 0 800] ------- [0:255 -1:255 32 0] 
s 63.912356976 _1_ RTR  --- 21 message 32 [0 0 0 0] ------- [1:255 -1:255 32 0] 
r 63.913277688 _0_ RTR  --- 21 message 32 [0 ffffffff 1 800] ------- [1:255 -1:255 32 0] 
s 63.913277688 _0_ RTR  --- 3 tcp 80 [0 0 0 0] ------- [0:1 1:1 32 1] [0 0] 0 1
s 63.913277688 _0_ RTR  --- 6 tcp 80 [0 0 0 0] ------- [0:1 1:1 32 1] [0 0] 0 1
D 63.913277688 _0_ IFQ  ARP 3 tcp 80 [0 0 0 800] ------- [0:1 1:1 32 1] [0 0] 0 1
s 63.913277688 _0_ RTR  --- 8 tcp 80 [0 0 0 0] ------- [0:1 1:1 32 1] [0 0] 0 1
D 63.913277688 _0_ IFQ  ARP 6 tcp 80 [0 0 0 800] ------- [0:1 1:1 32 1] [0 0] 0 1
s 63.913277688 _0_ RTR  --- 12 tcp 80 [0 0 0 0] ------- [0:1 1:1 32 1] [0 0] 0 1
D 63.913277688 _0_ RTR  CBK 8 tcp 80 [0 0 0 800] ------- [0:1 1:1 32 1] [0 0] 0 1
D 63.913277688 _0_ RTR  CBK 12 tcp 80 [0 0 0 800] ------- [0:1 1:1 32 1] [0 0] 0 1
s 63.913277688 _0_ RTR  --- 19 tcp 80 [0 0 0 0] ------- [0:1 1:1 32 1] [0 0] 0 1
r 63.922798524 _1_ AGT  --- 19 tcp 80 [13a 1 0 800] ------- [0:1 1:1 32 1] [0 0] 1 1
s 63.922798524 _1_ AGT  --- 22 ack 40 [0 0 0 0] ------- [1:1 0:1 32 0] [0 0] 0 1
r 63.922798524 _1_ RTR  --- 22 ack 40 [0 0 0 0] ------- [1:1 0:1 32 0] [0 0] 0 1
s 63.922798524 _1_ RTR  --- 22 ack 60 [0 0 0 0] ------- [1:1 0:1 32 0] [0 0] 0 1
r 63.929666359 _0_ AGT  --- 22 ack 60 [13a 0 1 800] ------- [1:1 0:1 32 0] [0 0] 1 1
s 63.929666359 _0_ AGT  --- 23 tcp 1040 [0 0 0 0] ------- [0:1 1:1 32 0] [1 0] 0 1
r 63.929666359 _0_ RTR  --- 23 tcp 1040 [0 0 0 0] ------- [0:1 1:1 32 0] [1 0] 0 1
s 63.929666359 _0_ RTR  --- 23 tcp 1060 [0 0 0 0] ------- [0:1 1:1 32 1] [1 0] 0 1
r 63.939952496 _1_ AGT  --- 23 tcp 1060 [13a 1 0 800] ------- [0:1 1:1 32 1] [1 0] 1 1
s 63.939952496 _1_ AGT  --- 24 ack 40 [0 0 0 0] ------- [1:1 0:1 32 0] [1 0] 0 1
r 63.939952496 _1_ RTR  --- 24 ack 40 [0 0 0 0] ------- [1:1 0:1 32 0] [1 0] 0 1
s 63.939952496 _1_ RTR  --- 24 ack 60 [0 0 0 0] ------- [1:1 0:1 32 0] [1 0] 0 1
r 63.941958632 _0_ AGT  --- 24 ack 60 [13a 0 1 800] ------- [1:1 0:1 32 0] [1 0] 1 1
s 63.941958632 _0_ AGT  --- 25 tcp 1040 [0 0 0 0] ------- [0:1 1:1 32 0] [2 0] 0 1
r 63.941958632 _0_ RTR  --- 25 tcp 1040 [0 0 0 0] ------- [0:1 1:1 32 0] [2 0] 0 1
s 63.941958632 _0_ RTR  --- 25 tcp 1060 [0 0 0 0] ------- [0:1 1:1 32 1] [2 0] 0 1
s 63.941958632 _0_ AGT  --- 26 tcp 1040 [0 0 0 0] ------- [0:1 1:1 32 0] [3 0] 0 1
r 63.941958632 _0_ RTR  --- 26 tcp 1040 [0 0 0 0] ------- [0:1 1:1 32 0] [3 0] 0 1
s 63.941958632 _0_ RTR  --- 26 tcp 1060 [0 0 0 0] ------- [0:1 1:1 32 1] [3 0] 0 1
r 63.952244769 _1_ AGT  --- 25 tcp 1060 [13a 1 0 800] ------- [0:1 1:1 32 1] [2 0] 1 1
s 63.952244769 _1_ AGT  --- 27 ack 40 [0 0 0 0] ------- [1:1 0:1 32 0] [2 0] 0 1
r 63.952244769 _1_ RTR  --- 27 ack 40 [0 0 0 0] ------- [1:1 0:1 32 0] [2 0] 0 1
s 63.952244769 _1_ RTR  --- 27 ack 60 [0 0 0 0] ------- [1:1 0:1 32 0] [2 0] 0 1
r 63.962271617 _1_ AGT  --- 26 tcp 1060 [13a 1 0 800] ------- [0:1 1:1 32 1] [3 0] 1 1
s 63.962271617 _1_ AGT  --- 28 ack 40 [0 0 0 0] ------- [1:1 0:1 32 0] [3 0] 0 1
r 63.962271617 _1_ RTR  --- 28 ack 40 [0 0 0 0] ------- [1:1 0:1 32 0] [3 0] 0 1
s 63.962271617 _1_ RTR  --- 28 ack 60 [0 0 0 0] ------- [1:1 0:1 32 0] [3 0] 0 1
r 63.964277754 _0_ AGT  --- 27 ack 60 [13a 0 1 800] ------- [1:1 0:1 32 0] [2 0] 1 1
s 63.964277754 _0_ AGT  --- 29 tcp 1040 [0 0 0 0] ------- [0:1 1:1 32 0] [4 0] 0 1
r 63.964277754 _0_ RTR  --- 29 tcp 1040 [0 0 0 0] ------- [0:1 1:1 32 0] [4 0] 0 1
s 63.964277754 _0_ RTR  --- 29 tcp 1060 [0 0 0 0] ------- [0:1 1:1 32 1] [4 0] 0 1
r 63.966484602 _0_ AGT  --- 28 ack 60 [13a 0 1 800] ------- [1:1 0:1 32 0] [3 0] 1 1
s 63.966484602 _0_ AGT  --- 30 tcp 1040 [0 0 0 0] ------- [0:1 1:1 32 0] [5 0] 0 1
r 63.966484602 _0_ RTR  --- 30 tcp 1040 [0 0 0 0] ------- [0:1 1:1 32 0] [5 0] 0 1
s 63.966484602 _0_ RTR  --- 30 tcp 1060 [0 0 0 0] ------- [0:1 1:1 32 1] [5 0] 0 1
r 63.976830738 _1_ AGT  --- 29 tcp 1060 [13a 1 0 800] ------- [0:1 1:1 32 1] [4 0] 1 1
s 63.976830738 _1_ AGT  --- 31 ack 40 [0 0 0 0] ------- [1:1 0:1 32 0] [4 0] 0 1
r 63.976830738 _1_ RTR  --- 31 ack 40 [0 0 0 0] ------- [1:1 0:1 32 0] [4 0] 0 1
s 63.976830738 _1_ RTR  --- 31 ack 60 [0 0 0 0] ------- [1:1 0:1 32 0] [4 0] 0 1
r 63.978976874 _0_ AGT  --- 31 ack 60 [13a 0 1 800] ------- [1:1 0:1 32 0] [4 0] 1 1
s 63.978976874 _0_ AGT  --- 32 tcp 1040 [0 0 0 0] ------- [0:1 1:1 32 0] [6 0] 0 1
r 63.978976874 _0_ RTR  --- 32 tcp 1040 [0 0 0 0] ------- [0:1 1:1 32 0] [6 0] 0 1
s 63.978976874 _0_ RTR  --- 32 tcp 1060 [0 0 0 0] ------- [0:1 1:1 32 1] [6 0] 0 1
s 63.978976874 _0_ AGT  --- 33 tcp 1040 [0 0 0 0] ------- [0:1 1:1 32 0] [7 0] 0 1
r 63.978976874 _0_ RTR  --- 33 tcp 1040 [0 0 0 0] ------- [0:1 1:1 32 0] [7 0] 0 1
s 63.978976874 _0_ RTR  --- 33 tcp 1060 [0 0 0 0] ------- [0:1 1:1 32 1] [7 0] 0 1
r 63.989263010 _1_ AGT  --- 30 tcp 1060 [13a 1 0 800] ------- [0:1 1:1 32 1] [5 0] 1 1
s 63.989263010 _1_ AGT  --- 34 ack 40 [0 0 0 0] ------- [1:1 0:1 32 0] [5 0] 0 1
r 63.989263010 _1_ RTR  --- 34 ack 40 [0 0 0 0] ------- [1:1 0:1 32 0] [5 0] 0 1
s 63.989263010 _1_ RTR  --- 34 ack 60 [0 0 0 0] ------- [1:1 0:1 32 0] [5 0] 0 1
r 63.991369146 _0_ AGT  --- 34 ack 60 [13a 0 1 800] ------- [1:1 0:1 32 0] [5 0] 1 1
s 63.991369146 _0_ AGT  --- 35 tcp 1040 [0 0 0 0] ------- [0:1 1:1 32 0] [8 0] 0 1
r 63.991369146 _0_ RTR  --- 35 tcp 1040 [0 0 0 0] ------- [0:1 1:1 32 0] [8 0] 0 1
s 63.991369146 _0_ RTR  --- 35 tcp 1060 [0 0 0 0] ------- [0:1 1:1 32 1] [8 0] 0 1
r 64.001375281 _1_ AGT  --- 32 tcp 1060 [13a 1 0 800] ------- [0:1 1:1 32 1] [6 0] 1 1
s 64.001375281 _1_ AGT  --- 36 ack 40 [0 0 0 0] ------- [1:1 0:1 32 0] [6 0] 0 1
r 64.001375281 _1_ RTR  --- 36 ack 40 [0 0 0 0] ------- [1:1 0:1 32 0] [6 0] 0 1
s 64.001375281 _1_ RTR  --- 36 ack 60 [0 0 0 0] ------- [1:1 0:1 32 0] [6 0] 0 1
r 64.003521417 _0_ AGT  --- 36 ack 60 [13a 0 1 800] ------- [1:1 0:1 32 0] [6 0] 1 1
s 64.003521417 _0_ AGT  --- 37 tcp 1040 [0 0 0 0] ------- [0:1 1:1 32 0] [9 0] 0 1
r 64.003521417 _0_ RTR  --- 37 tcp 1040 [0 0 0 0] ------- [0:1 1:1 32 0] [9 0] 0 1
s 64.003521417 _0_ RTR  --- 37 tcp 1060 [0 0 0 0] ------- [0:1 1:1 32 1] [9 0] 0 1
r 64.013587552 _1_ AGT  --- 33 tcp 1060 [13a 1 0 800] ------- [0:1 1:1 32 1] [7 0] 1 1
s 64.013587552 _1_ AGT  --- 38 ack 40 [0 0 0 0] ------- [1:1 0:1 32 0] [7 0] 0 1
r 64.013587552 _1_ RTR  --- 38 ack 40 [0 0 0 0] ------- [1:1 0:1 32 0] [7 0] 0 1
s 64.013587552 _1_ RTR  --- 38 ack 60 [0 0 0 0] ------- [1:1 0:1 32 0] [7 0] 0 1
r 64.015713688 _0_ AGT  --- 38 ack 60 [13a 0 1 800] ------- [1:1 0:1 32 0] [7 0] 1 1
s 64.015713688 _0_ AGT  --- 39 tcp 1040 [0 0 0 0] ------- [0:1 1:1 32 0] [10 0] 0 1
r 64.015713688 _0_ RTR  --- 39 tcp 1040 [0 0 0 0] ------- [0:1 1:1 32 0] [10 0] 0 1
s 64.015713688 _0_ RTR  --- 39 tcp 1060 [0 0 0 0] ------- [0:1 1:1 32 1] [10 0] 0 1
s 64.015713688 _0_ AGT  --- 40 tcp 1040 [0 0 0 0] ------- [0:1 1:1 32 0] [11 0] 0 1
r 64.015713688 _0_ RTR  --- 40 tcp 1040 [0 0 0 0] ------- [0:1 1:1 32 0] [11 0] 0 1
s 64.015713688 _0_ RTR  --- 40 tcp 1060 [0 0 0 0] ------- [0:1 1:1 32 1] [11 0] 0 1
r 64.025939823 _1_ AGT  --- 35 tcp 1060 [13a 1 0 800] ------- [0:1 1:1 32 1] [8 0] 1 1
s 64.025939823 _1_ AGT  --- 41 ack 40 [0 0 0 0] ------- [1:1 0:1 32 0] [8 0] 0 1
r 64.025939823 _1_ RTR  --- 41 ack 40 [0 0 0 0] ------- [1:1 0:1 32 0] [8 0] 0 1
s 64.025939823 _1_ RTR  --- 41 ack 60 [0 0 0 0] ------- [1:1 0:1 32 0] [8 0] 0 1
r 64.028025958 _0_ AGT  --- 41 ack 60 [13a 0 1 800] ------- [1:1 0:1 32 0] [8 0] 1 1
s 64.028025958 _0_ AGT  --- 42 tcp 1040 [0 0 0 0] ------- [0:1 1:1 32 0] [12 0] 0 1
r 64.028025958 _0_ RTR  --- 42 tcp 1040 [0 0 0 0] ------- [0:1 1:1 32 0] [12 0] 0 1
s 64.028025958 _0_ RTR  --- 42 tcp 1060 [0 0 0 0] ------- [0:1 1:1 32 1] [12 0] 0 1
r 64.038352093 _1_ AGT  --- 37 tcp 1060 [13a 1 0 800] ------- [0:1 1:1 32 1] [9 0] 1 1
s 64.038352093 _1_ AGT  --- 43 ack 40 [0 0 0 0] ------- [1:1 0:1 32 0] [9 0] 0 1
r 64.038352093 _1_ RTR  --- 43 ack 40 [0 0 0 0] ------- [1:1 0:1 32 0] [9 0] 0 1
s 64.038352093 _1_ RTR  --- 43 ack 60 [0 0 0 0] ------- [1:1 0:1 32 0] [9 0] 0 1
r 64.040518228 _0_ AGT  --- 43 ack 60 [13a 0 1 800] ------- [1:1 0:1 32 0] [9 0] 1 1
s 64.040518228 _0_ AGT  --- 44 tcp 1040 [0 0 0 0] ------- [0:1 1:1 32 0] [13 0] 0 1
r 64.040518228 _0_ RTR  --- 44 tcp 1040 [0 0 0 0] ------- [0:1 1:1 32 0] [13 0] 0 1
s 64.040518228 _0_ RTR  --- 44 tcp 1060 [0 0 0 0] ------- [0:1 1:1 32 1] [13 0] 0 1
r 64.050664363 _1_ AGT  --- 39 tcp 1060 [13a 1 0 800] ------- [0:1 1:1 32 1] [10 0] 1 1
s 64.050664363 _1_ AGT  --- 45 ack 40 [0 0 0 0] ------- [1:1 0:1 32 0] [10 0] 0 1
r 64.050664363 _1_ RTR  --- 45 ack 40 [0 0 0 0] ------- [1:1 0:1 32 0] [10 0] 0 1
s 64.050664363 _1_ RTR  --- 45 ack 60 [0 0 0 0] ------- [1:1 0:1 32 0] [10 0] 0 1
r 64.052670498 _0_ AGT  --- 45 ack 60 [13a 0 1 800] ------- [1:1 0:1 32 0] [10 0] 1 1
s 64.052670498 _0_ AGT  --- 46 tcp 1040 [0 0 0 0] ------- [0:1 1:1 32 0] [14 0] 0 1
r 64.052670498 _0_ RTR  --- 46 tcp 1040 [0 0 0 0] ------- [0:1 1:1 32 0] [14 0] 0 1
s 64.052670498 _0_ RTR  --- 46 tcp 1060 [0 0 0 0] ------- [0:1 1:1 32 1] [14 0] 0 1
r 64.062676633 _1_ AGT  --- 40 tcp 1060 [13a 1 0 800] ------- [0:1 1:1 32 1] [11 0] 1 1
s 64.062676633 _1_ AGT  --- 47 ack 40 [0 0 0 0] ------- [1:1 0:1 32 0] [11 0] 0 1
r 64.062676633 _1_ RTR  --- 47 ack 40 [0 0 0 0] ------- [1:1 0:1 32 0] [11 0] 0 1
s 64.062676633 _1_ RTR  --- 47 ack 60 [0 0 0 0] ------- [1:1 0:1 32 0] [11 0] 0 1
r 64.072763479 _1_ AGT  --- 42 tcp 1060 [13a 1 0 800] ------- [0:1 1:1 32 1] [12 0] 1 1
s 64.072763479 _1_ AGT  --- 48 ack 40 [0 0 0 0] ------- [1:1 0:1 32 0] [12 0] 0 1
r 64.072763479 _1_ RTR  --- 48 ack 40 [0 0 0 0] ------- [1:1 0:1 32 0] [12 0] 0 1
s 64.072763479 _1_ RTR  --- 48 ack 60 [0 0 0 0] ------- [1:1 0:1 32 0] [12 0] 0 1
r 64.082750325 _1_ AGT  --- 44 tcp 1060 [13a 1 0 800] ------- [0:1 1:1 32 1] [13 0] 1 1
s 64.082750325 _1_ AGT  --- 49 ack 40 [0 0 0 0] ------- [1:1 0:1 32 0] [13 0] 0 1
r 64.082750325 _1_ RTR  --- 49 ack 40 [0 0 0 0] ------- [1:1 0:1 32 0] [13 0] 0 1
s 64.082750325 _1_ RTR  --- 49 ack 60 [0 0 0 0] ------- [1:1 0:1 32 0] [13 0] 0 1
r 64.092797171 _1_ AGT  --- 46 tcp 1060 [13a 1 0 800] ------- [0:1 1:1 32 1] [14 0] 1 1
s 64.092797171 _1_ AGT  --- 50 ack 40 [0 0 0 0] ------- [1:1 0:1 32 0] [14 0] 0 1
r 64.092797171 _1_ RTR  --- 50 ack 40 [0 0 0 0] ------- [1:1 0:1 32 0] [14 0] 0 1
s 64.092797171 _1_ RTR  --- 50 ack 60 [0 0 0 0] ------- [1:1 0:1 32 0] [14 0] 0 1
r 64.094883305 _0_ AGT  --- 47 ack 60 [13a 0 1 800] ------- [1:1 0:1 32 0] [11 0] 1 1
s 64.094883305 _0_ AGT  --- 51 tcp 1040 [0 0 0 0] ------- [0:1 1:1 32 0] [15 0] 0 1
r 64.094883305 _0_ RTR  --- 51 tcp 1040 [0 0 0 0] ------- [0:1 1:1 32 0] [15 0] 0 1
s 64.094883305 _0_ RTR  --- 51 tcp 1060 [0 0 0 0] ------- [0:1 1:1 32 1] [15 0] 0 1
r 64.105309439 _1_ AGT  --- 51 tcp 1060 [13a 1 0 800] ------- [0:1 1:1 32 1] [15 0] 1 1
s 64.105309439 _1_ AGT  --- 52 ack 40 [0 0 0 0] ------- [1:1 0:1 32 0] [15 0] 0 1
r 64.105309439 _1_ RTR  --- 52 ack 40 [0 0 0 0] ------- [1:1 0:1 32 0] [15 0] 0 1
s 64.105309439 _1_ RTR  --- 52 ack 60 [0 0 0 0] ------- [1:1 0:1 32 0] [15 0] 0 1
r 64.107475573 _0_ AGT  --- 48 ack 60 [13a 0 1 800] ------- [1:1 0:1 32 0] [12 0] 1 1
s 64.107475573 _0_ AGT  --- 53 tcp 1040 [0 0 0 0] ------- [0:1 1:1 32 0] [16 0] 0 1
r 64.107475573 _0_ RTR  --- 53 tcp 1040 [0 0 0 0] ------- [0:1 1:1 32 0] [16 0] 0 1
s 64.107475573 _0_ RTR  --- 53 tcp 1060 [0 0 0 0] ------- [0:1 1:1 32 1] [16 0] 0 1
s 64.107475573 _0_ AGT  --- 54 tcp 1040 [0 0 0 0] ------- [0:1 1:1 32 0] [17 0] 0 1
r 64.107475573 _0_ RTR  --- 54 tcp 1040 [0 0 0 0] ------- [0:1 1:1 32 0] [17 0] 0 1
s 64.107475573 _0_ RTR  --- 54 tcp 1060 [0 0 0 0] ------- [0:1 1:1 32 1] [17 0] 0 1
r 64.109482418 _0_ AGT  --- 49 ack 60 [13a 0 1 800] ------- [1:1 0:1 32 0] [13 0] 1 1
s 64.109482418 _0_ AGT  --- 55 tcp 1040 [0 0 0 0] ------- [0:1 1:1 32 0] [18 0] 0 1
r 64.109482418 _0_ RTR  --- 55 tcp 1040 [0 0 0 0] ------- [0:1 1:1 32 0] [18 0] 0 1
s 64.109482418 _0_ RTR  --- 55 tcp 1060 [0 0 0 0] ------- [0:1 1:1 32 1] [18 0] 0 1
r 64.111489263 _0_ AGT  --- 50 ack 60 [13a 0 1 800] ------- [1:1 0:1 32 0] [14 0] 1 1
s 64.111489263 _0_ AGT  --- 56 tcp 1040 [0 0 0 0] ------- [0:1 1:1 32 0] [19 0] 0 1
r 64.111489263 _0_ RTR  --- 56 tcp 1040 [0 0 0 0] ------- [0:1 1:1 32 0] [19 0] 0 1
s 64.111489263 _0_ RTR  --- 56 tcp 1060 [0 0 0 0] ------- [0:1 1:1 32 1] [19 0] 0 1
r 64.113536108 _0_ AGT  --- 52 ack 60 [13a 0 1 800] ------- [1:1 0:1 32 0] [15 0] 1 1
s 64.113536108 _0_ AGT  --- 57 tcp 1040 [0 0 0 0] ------- [0:1 1:1 32 0] [20 0] 0 1
r 64.113536108 _0_ RTR  --- 57 tcp 1040 [0 0 0 0] ------- [0:1 1:1 32 0] [20 0] 0 1
s 64.113536108 _0_ RTR  --- 57 tcp 1060 [0 0 0 0] ------- [0:1 1:1 32 1] [20 0] 0 1
r 64.123682242 _1_ AGT  --- 53 tcp 1060 [13a 1 0 800] ------- [0:1 1:1 32 1] [16 0] 1 1
s 64.123682242 _1_ AGT  --- 58 ack 40 [0 0 0 0] ------- [1:1 0:1 32 0] [16 0] 0 1
r 64.123682242 _1_ RTR  --- 58 ack 40 [0 0 0 0] ------- [1:1 0:1 32 0] [16 0] 0 1
s 64.123682242 _1_ RTR  --- 58 ack 60 [0 0 0 0] ------- [1:1 0:1 32 0] [16 0] 0 1
r 64.133689087 _1_ AGT  --- 54 tcp 1060 [13a 1 0 800] ------- [0:1 1:1 32 1] [17 0] 1 1
s 64.133689087 _1_ AGT  --- 59 ack 40 [0 0 0 0] ------- [1:1 0:1 32 0] [17 0] 0 1
r 64.133689087 _1_ RTR  --- 59 ack 40 [0 0 0 0] ------- [1:1 0:1 32 0] [17 0] 0 1
s 64.133689087 _1_ RTR  --- 59 ack 60 [0 0 0 0] ------- [1:1 0:1 32 0] [17 0] 0 1
r 64.143695932 _1_ AGT  --- 55 tcp 1060 [13a 1 0 800] ------- [0:1 1:1 32 1] [18 0] 1 1
s 64.143695932 _1_ AGT  --- 60 ack 40 [0 0 0 0] ------- [1:1 0:1 32 0] [18 0] 0 1
r 64.143695932 _1_ RTR  --- 60 ack 40 [0 0 0 0] ------- [1:1 0:1 32 0] [18 0] 0 1
s 64.143695932 _1_ RTR  --- 60 ack 60 [0 0 0 0] ------- [1:1 0:1 32 0] [18 0] 0 1
r 64.145762065 _0_ AGT  --- 58 ack 60 [13a 0 1 800] ------- [1:1 0:1 32 0] [16 0] 1 1
s 64.145762065 _0_ AGT  --- 61 tcp 1040 [0 0 0 0] ------- [0:1 1:1 32 0] [21 0] 0 1
r 64.145762065 _0_ RTR  --- 61 tcp 1040 [0 0 0 0] ------- [0:1 1:1 32 0] [21 0] 0 1
s 64.145762065 _0_ RTR  --- 61 tcp 1060 [0 0 0 0] ------- [0:1 1:1 32 1] [21 0] 0 1
r 64.156068199 _1_ AGT  --- 56 tcp 1060 [13a 1 0 800] ------- [0:1 1:1 32 1] [19 0] 1 1
s 64.156068199 _1_ AGT  --- 62 ack 40 [0 0 0 0] ------- [1:1 0:1 32 0] [19 0] 0 1
r 64.156068199 _1_ RTR  --- 62 ack 40 [0 0 0 0] ------- [1:1 0:1 32 0] [19 0] 0 1
s 64.156068199 _1_ RTR  --- 62 ack 60 [0 0 0 0] ------- [1:1 0:1 32 0] [19 0] 0 1
r 64.158194332 _0_ AGT  --- 59 ack 60 [13a 0 1 800] ------- [1:1 0:1 32 0] [17 0] 1 1
s 64.158194332 _0_ AGT  --- 63 tcp 1040 [0 0 0 0] ------- [0:1 1:1 32 0] [22 0] 0 1
r 64.158194332 _0_ RTR  --- 63 tcp 1040 [0 0 0 0] ------- [0:1 1:1 32 0] [22 0] 0 1
s 64.158194332 _0_ RTR  --- 63 tcp 1060 [0 0 0 0] ------- [0:1 1:1 32 1] [22 0] 0 1
s 64.158194332 _0_ AGT  --- 64 tcp 1040 [0 0 0 0] ------- [0:1 1:1 32 0] [23 0] 0 1
r 64.158194332 _0_ RTR  --- 64 tcp 1040 [0 0 0 0] ------- [0:1 1:1 32 0] [23 0] 0 1
s 64.158194332 _0_ RTR  --- 64 tcp 1060 [0 0 0 0] ------- [0:1 1:1 32 1] [23 0] 0 1
r 64.168440465 _1_ AGT  --- 57 tcp 1060 [13a 1 0 800] ------- [0:1 1:1 32 1] [20 0] 1 1
s 64.168440465 _1_ AGT  --- 65 ack 40 [0 0 0 0] ------- [1:1 0:1 32 0] [20 0] 0 1
r 64.168440465 _1_ RTR  --- 65 ack 40 [0 0 0 0] ------- [1:1 0:1 32 0] [20 0] 0 1
s 64.168440465 _1_ RTR  --- 65 ack 60 [0 0 0 0] ------- [1:1 0:1 32 0] [20 0] 0 1
r 64.170666598 _0_ AGT  --- 60 ack 60 [13a 0 1 800] ------- [1:1 0:1 32 0] [18 0] 1 1
s 64.170666598 _0_ AGT  --- 66 tcp 1040 [0 0 0 0] ------- [0:1 1:1 32 0] [24 0] 0 1
r 64.170666598 _0_ RTR  --- 66 tcp 1040 [0 0 0 0] ------- [0:1 1:1 32 0] [24 0] 0 1
s 64.170666598 _0_ RTR  --- 66 tcp 1060 [0 0 0 0] ------- [0:1 1:1 32 1] [24 0] 0 1
r 64.180752731 _1_ AGT  --- 61 tcp 1060 [13a 1 0 800] ------- [0:1 1:1 32 1] [21 0] 1 1
s 64.180752731 _1_ AGT  --- 67 ack 40 [0 0 0 0] ------- [1:1 0:1 32 0] [21 0] 0 1
r 64.180752731 _1_ RTR  --- 67 ack 40 [0 0 0 0] ------- [1:1 0:1 32 0] [21 0] 0 1
s 64.180752731 _1_ RTR  --- 67 ack 60 [0 0 0 0] ------- [1:1 0:1 32 0] [21 0] 0 1
r 64.182838864 _0_ AGT  --- 62 ack 60 [13a 0 1 800] ------- [1:1 0:1 32 0] [19 0] 1 1
s 64.182838864 _0_ AGT  --- 68 tcp 1040 [0 0 0 0] ------- [0:1 1:1 32 0] [25 0] 0 1
r 64.182838864 _0_ RTR  --- 68 tcp 1040 [0 0 0 0] ------- [0:1 1:1 32 0] [25 0] 0 1
s 64.182838864 _0_ RTR  --- 68 tcp 1060 [0 0 0 0] ------- [0:1 1:1 32 1] [25 0] 0 1
r 64.185005707 _0_ AGT  --- 65 ack 60 [13a 0 1 800] ------- [1:1 0:1 32 0] [20 0] 1 1
s 64.185005707 _0_ AGT  --- 69 tcp 1040 [0 0 0 0] ------- [0:1 1:1 32 0] [26 0] 0 1
r 64.185005707 _0_ RTR  --- 69 tcp 1040 [0 0 0 0] ------- [0:1 1:1 32 0] [26 0] 0 1
s 64.185005707 _0_ RTR  --- 69 tcp 1060 [0 0 0 0] ------- [0:1 1:1 32 1] [26 0] 0 1
r 64.187132551 _0_ AGT  --- 67 ack 60 [13a 0 1 800] ------- [1:1 0:1 32 0] [21 0] 1 1
s 64.187132551 _0_ AGT  --- 70 tcp 1040 [0 0 0 0] ------- [0:1 1:1 32 0] [27 0] 0 1
r 64.187132551 _0_ RTR  --- 70 tcp 1040 [0 0 0 0] ------- [0:1 1:1 32 0] [27 0] 0 1
s 64.187132551 _0_ RTR  --- 70 tcp 1060 [0 0 0 0] ------- [0:1 1:1 32 1] [27 0] 0 1
r 64.197258684 _1_ AGT  --- 63 tcp 1060 [13a 1 0 800] ------- [0:1 1:1 32 1] [22 0] 1 1
s 64.197258684 _1_ AGT  --- 71 ack 40 [0 0 0 0] ------- [1:1 0:1 32 0] [22 0] 0 1
r 64.197258684 _1_ RTR  --- 71 ack 40 [0 0 0 0] ------- [1:1 0:1 32 0] [22 0] 0 1
s 64.197258684 _1_ RTR  --- 71 ack 60 [0 0 0 0] ------- [1:1 0:1 32 0] [22 0] 0 1
r 64.207245527 _1_ AGT  --- 64 tcp 1060 [13a 1 0 800] ------- [0:1 1:1 32 1] [23 0] 1 1
s 64.207245527 _1_ AGT  --- 72 ack 40 [0 0 0 0] ------- [1:1 0:1 32 0] [23 0] 0 1
r 64.207245527 _1_ RTR  --- 72 ack 40 [0 0 0 0] ------- [1:1 0:1 32 0] [23 0] 0 1
s 64.207245527 _1_ RTR  --- 72 ack 60 [0 0 0 0] ------- [1:1 0:1 32 0] [23 0] 0 1
r 64.217332370 _1_ AGT  --- 66 tcp 1060 [13a 1 0 800] ------- [0:1 1:1 32 1] [24 0] 1 1
s 64.217332370 _1_ AGT  --- 73 ack 40 [0 0 0 0] ------- [1:1 0:1 32 0] [24 0] 0 1
r 64.217332370 _1_ RTR  --- 73 ack 40 [0 0 0 0] ------- [1:1 0:1 32 0] [24 0] 0 1
s 64.217332370 _1_ RTR  --- 73 ack 60 [0 0 0 0] ------- [1:1 0:1 32 0] [24 0] 0 1
r 64.227319214 _1_ AGT  --- 68 tcp 1060 [13a 1 0 800] ------- [0:1 1:1 32 1] [25 0] 1 1
s 64.227319214 _1_ AGT  --- 74 ack 40 [0 0 0 0] ------- [1:1 0:1 32 0] [25 0] 0 1
r 64.227319214 _1_ RTR  --- 74 ack 40 [0 0 0 0] ------- [1:1 0:1 32 0] [25 0] 0 1
s 64.227319214 _1_ RTR  --- 74 ack 60 [0 0 0 0] ------- [1:1 0:1 32 0] [25 0] 0 1
r 64.229325346 _0_ AGT  --- 71 ack 60 [13a 0 1 800] ------- [1:1 0:1 32 0] [22 0] 1 1
s 64.229325346 _0_ AGT  --- 75 tcp 1040 [0 0 0 0] ------- [0:1 1:1 32 0] [28 0] 0 1
r 64.229325346 _0_ RTR  --- 75 tcp 1040 [0 0 0 0] ------- [0:1 1:1 32 0] [28 0] 0 1
s 64.229325346 _0_ RTR  --- 75 tcp 1060 [0 0 0 0] ------- [0:1 1:1 32 1] [28 0] 0 1
r 64.239851478 _1_ AGT  --- 69 tcp 1060 [13a 1 0 800] ------- [0:1 1:1 32 1] [26 0] 1 1
s 64.239851478 _1_ AGT  --- 76 ack 40 [0 0 0 0] ------- [1:1 0:1 32 0] [26 0] 0 1
r 64.239851478 _1_ RTR  --- 76 ack 40 [0 0 0 0] ------- [1:1 0:1 32 0] [26 0] 0 1
s 64.239851478 _1_ RTR  --- 76 ack 60 [0 0 0 0] ------- [1:1 0:1 32 0] [26 0] 0 1
r 64.241877610 _0_ AGT  --- 72 ack 60 [13a 0 1 800] ------- [1:1 0:1 32 0] [23 0] 1 1
s 64.241877610 _0_ AGT  --- 77 tcp 1040 [0 0 0 0] ------- [0:1 1:1 32 0] [29 0] 0 1
r 64.241877610 _0_ RTR  --- 77 tcp 1040 [0 0 0 0] ------- [0:1 1:1 32 0] [29 0] 0 1
s 64.241877610 _0_ RTR  --- 77 tcp 1060 [0 0 0 0] ------- [0:1 1:1 32 1] [29 0] 0 1
s 64.241877610 _0_ AGT  --- 78 tcp 1040 [0 0 0 0] ------- [0:1 1:1 32 0] [30 0] 0 1
r 64.241877610 _0_ RTR  --- 78 tcp 1040 [0 0 0 0] ------- [0:1 1:1 32 0] [30 0] 0 1
s 64.241877610 _0_ RTR  --- 78 tcp 1060 [0 0 0 0] ------- [0:1 1:1 32 1] [30 0] 0 1
r 64.252423742 _1_ AGT  --- 70 tcp 1060 [13a 1 0 800] ------- [0:1 1:1 32 1] [27 0] 1 1
s 64.252423742 _1_ AGT  --- 79 ack 40 [0 0 0 0] ------- [1:1 0:1 32 0] [27 0] 0 1
r 64.252423742 _1_ RTR  --- 79 ack 40 [0 0 0 0] ------- [1:1 0:1 32 0] [27 0] 0 1
s 64.252423742 _1_ RTR  --- 79 ack 60 [0 0 0 0] ------- [1:1 0:1 32 0] [27 0] 0 1
r 64.254449874 _0_ AGT  --- 73 ack 60 [13a 0 1 800] ------- [1:1 0:1 32 0] [24 0] 1 1
s 64.254449874 _0_ AGT  --- 80 tcp 1040 [0 0 0 0] ------- [0:1 1:1 32 0] [31 0] 0 1
r 64.254449874 _0_ RTR  --- 80 tcp 1040 [0 0 0 0] ------- [0:1 1:1 32 0] [31 0] 0 1
s 64.254449874 _0_ RTR  --- 80 tcp 1060 [0 0 0 0] ------- [0:1 1:1 32 1] [31 0] 0 1
r 64.264636005 _1_ AGT  --- 75 tcp 1060 [13a 1 0 800] ------- [0:1 1:1 32 1] [28 0] 1 1
s 64.264636005 _1_ AGT  --- 81 ack 40 [0 0 0 0] ------- [1:1 0:1 32 0] [28 0] 0 1
r 64.264636005 _1_ RTR  --- 81 ack 40 [0 0 0 0] ------- [1:1 0:1 32 0] [28 0] 0 1
s 64.264636005 _1_ RTR  --- 81 ack 60 [0 0 0 0] ------- [1:1 0:1 32 0] [28 0] 0 1
r 64.274762848 _1_ AGT  --- 77 tcp 1060 [13a 1 0 800] ------- [0:1 1:1 32 1] [29 0] 1 1
s 64.274762848 _1_ AGT  --- 82 ack 40 [0 0 0 0] ------- [1:1 0:1 32 0] [29 0] 0 1
r 64.274762848 _1_ RTR  --- 82 ack 40 [0 0 0 0] ------- [1:1 0:1 32 0] [29 0] 0 1
s 64.274762848 _1_ RTR  --- 82 ack 60 [0 0 0 0] ------- [1:1 0:1 32 0] [29 0] 0 1
r 64.276948979 _0_ AGT  --- 74 ack 60 [13a 0 1 800] ------- [1:1 0:1 32 0] [25 0] 1 1
s 64.276948979 _0_ AGT  --- 83 tcp 1040 [0 0 0 0] ------- [0:1 1:1 32 0] [32 0] 0 1
r 64.276948979 _0_ RTR  --- 83 tcp 1040 [0 0 0 0] ------- [0:1 1:1 32 0] [32 0] 0 1
s 64.276948979 _0_ RTR  --- 83 tcp 1060 [0 0 0 0] ------- [0:1 1:1 32 1] [32 0] 0 1
r 64.286995111 _1_ AGT  --- 78 tcp 1060 [13a 1 0 800] ------- [0:1 1:1 32 1] [30 0] 1 1
s 64.286995111 _1_ AGT  --- 84 ack 40 [0 0 0 0] ------- [1:1 0:1 32 0] [30 0] 0 1
r 64.286995111 _1_ RTR  --- 84 ack 40 [0 0 0 0] ------- [1:1 0:1 32 0] [30 0] 0 1
s 64.286995111 _1_ RTR  --- 84 ack 60 [0 0 0 0] ------- [1:1 0:1 32 0] [30 0] 0 1
r 64.297081952 _1_ AGT  --- 80 tcp 1060 [13a 1 0 800] ------- [0:1 1:1 32 1] [31 0] 1 1
s 64.297081952 _1_ AGT  --- 85 ack 40 [0 0 0 0] ------- [1:1 0:1 32 0] [31 0] 0 1
r 64.297081952 _1_ RTR  --- 85 ack 40 [0 0 0 0] ------- [1:1 0:1 32 0] [31 0] 0 1
s 64.297081952 _1_ RTR  --- 85 ack 60 [0 0 0 0] ------- [1:1 0:1 32 0] [31 0] 0 1
r 64.307248794 _1_ AGT  --- 83 tcp 1060 [13a 1 0 800] ------- [0:1 1:1 32 1] [32 0] 1 1
s 64.307248794 _1_ AGT  --- 86 ack 40 [0 0 0 0] ------- [1:1 0:1 32 0] [32 0] 0 1
r 64.307248794 _1_ RTR  --- 86 ack 40 [0 0 0 0] ------- [1:1 0:1 32 0] [32 0] 0 1
s 64.307248794 _1_ RTR  --- 86 ack 60 [0 0 0 0] ------- [1:1 0:1 32 0] [32 0] 0 1
r 64.309434925 _0_ AGT  --- 76 ack 60 [13a 0 1 800] ------- [1:1 0:1 32 0] [26 0] 1 1
s 64.309434925 _0_ AGT  --- 87 tcp 1040 [0 0 0 0] ------- [0:1 1:1 32 0] [33 0] 0 1
r 64.309434925 _0_ RTR  --- 87 tcp 1040 [0 0 0 0] ------- [0:1 1:1 32 0] [33 0] 0 1
s 64.309434925 _0_ RTR  --- 87 tcp 1060 [0 0 0 0] ------- [0:1 1:1 32 1] [33 0] 0 1
r 64.319801056 _1_ AGT  --- 87 tcp 1060 [13a 1 0 800] ------- [0:1 1:1 32 1] [33 0] 1 1
s 64.319801056 _1_ AGT  --- 88 ack 40 [0 0 0 0] ------- [1:1 0:1 32 0] [33 0] 0 1
r 64.319801056 _1_ RTR  --- 88 ack 40 [0 0 0 0] ------- [1:1 0:1 32 0] [33 0] 0 1
s 64.319801056 _1_ RTR  --- 88 ack 60 [0 0 0 0] ------- [1:1 0:1 32 0] [33 0] 0 1
r 64.321927187 _0_ AGT  --- 79 ack 60 [13a 0 1 800] ------- [1:1 0:1 32 0] [27 0] 1 1
s 64.321927187 _0_ AGT  --- 89 tcp 1040 [0 0 0 0] ------- [0:1 1:1 32 0] [34 0] 0 1
r 64.321927187 _0_ RTR  --- 89 tcp 1040 [0 0 0 0] ------- [0:1 1:1 32 0] [34 0] 0 1
s 64.321927187 _0_ RTR  --- 89 tcp 1060 [0 0 0 0] ------- [0:1 1:1 32 1] [34 0] 0 1
r 64.323914028 _0_ AGT  --- 81 ack 60 [13a 0 1 800] ------- [1:1 0:1 32 0] [28 0] 1 1
s 64.323914028 _0_ AGT  --- 90 tcp 1040 [0 0 0 0] ------- [0:1 1:1 32 0] [35 0] 0 1
r 64.323914028 _0_ RTR  --- 90 tcp 1040 [0 0 0 0] ------- [0:1 1:1 32 0] [35 0] 0 1
s 64.323914028 _0_ RTR  --- 90 tcp 1060 [0 0 0 0] ------- [0:1 1:1 32 1] [35 0] 0 1
r 64.334020159 _1_ AGT  --- 89 tcp 1060 [13a 1 0 800] ------- [0:1 1:1 32 1] [34 0] 1 1
s 64.334020159 _1_ AGT  --- 91 ack 40 [0 0 0 0] ------- [1:1 0:1 32 0] [34 0] 0 1
r 64.334020159 _1_ RTR  --- 91 ack 40 [0 0 0 0] ------- [1:1 0:1 32 0] [34 0] 0 1
s 64.334020159 _1_ RTR  --- 91 ack 60 [0 0 0 0] ------- [1:1 0:1 32 0] [34 0] 0 1
r 64.336026290 _0_ AGT  --- 82 ack 60 [13a 0 1 800] ------- [1:1 0:1 32 0] [29 0] 1 1
s 64.336026290 _0_ AGT  --- 92 tcp 1040 [0 0 0 0] ------- [0:1 1:1 32 0] [36 0] 0 1
r 64.336026290 _0_ RTR  --- 92 tcp 1040 [0 0 0 0] ------- [0:1 1:1 32 0] [36 0] 0 1
s 64.336026290 _0_ RTR  --- 92 tcp 1060 [0 0 0 0] ------- [0:1 1:1 32 1] [36 0] 0 1
r 64.338173131 _0_ AGT  --- 84 ack 60 [13a 0 1 800] ------- [1:1 0:1 32 0] [30 0] 1 1
s 64.338173131 _0_ AGT  --- 93 tcp 1040 [0 0 0 0] ------- [0:1 1:1 32 0] [37 0] 0 1
r 64.338173131 _0_ RTR  --- 93 tcp 1040 [0 0 0 0] ------- [0:1 1:1 32 0] [37 0] 0 1
s 64.338173131 _0_ RTR  --- 93 tcp 1060 [0 0 0 0] ------- [0:1 1:1 32 1] [37 0] 0 1
r 64.348359262 _1_ AGT  --- 90 tcp 1060 [13a 1 0 800] ------- [0:1 1:1 32 1] [35 0] 1 1
s 64.348359262 _1_ AGT  --- 94 ack 40 [0 0 0 0] ------- [1:1 0:1 32 0] [35 0] 0 1
r 64.348359262 _1_ RTR  --- 94 ack 40 [0 0 0 0] ------- [1:1 0:1 32 0] [35 0] 0 1
s 64.348359262 _1_ RTR  --- 94 ack 60 [0 0 0 0] ------- [1:1 0:1 32 0] [35 0] 0 1
r 64.350665392 _0_ AGT  --- 85 ack 60 [13a 0 1 800] ------- [1:1 0:1 32 0] [31 0] 1 1
s 64.350665392 _0_ AGT  --- 95 tcp 1040 [0 0 0 0] ------- [0:1 1:1 32 0] [38 0] 0 1
r 64.350665392 _0_ RTR  --- 95 tcp 1040 [0 0 0 0] ------- [0:1 1:1 32 0] [38 0] 0 1
s 64.350665392 _0_ RTR  --- 95 tcp 1060 [0 0 0 0] ------- [0:1 1:1 32 1] [38 0] 0 1
s 64.350665392 _0_ AGT  --- 96 tcp 1040 [0 0 0 0] ------- [0:1 1:1 32 0] [39 0] 0 1
r 64.350665392 _0_ RTR  --- 96 tcp 1040 [0 0 0 0] ------- [0:1 1:1 32 0] [39 0] 0 1
s 64.350665392 _0_ RTR  --- 96 tcp 1060 [0 0 0 0] ------- [0:1 1:1 32 1] [39 0] 0 1
r 64.352792233 _0_ AGT  --- 86 ack 60 [13a 0 1 800] ------- [1:1 0:1 32 0] [32 0] 1 1
s 64.352792233 _0_ AGT  --- 97 tcp 1040 [0 0 0 0] ------- [0:1 1:1 32 0] [40 0] 0 1
r 64.352792233 _0_ RTR  --- 97 tcp 1040 [0 0 0 0] ------- [0:1 1:1 32 0] [40 0] 0 1
s 64.352792233 _0_ RTR  --- 97 tcp 1060 [0 0 0 0] ------- [0:1 1:1 32 1] [40 0] 0 1
r 64.362938363 _1_ AGT  --- 92 tcp 1060 [13a 1 0 800] ------- [0:1 1:1 32 1] [36 0] 1 1
s 64.362938363 _1_ AGT  --- 98 ack 40 [0 0 0 0] ------- [1:1 0:1 32 0] [36 0] 0 1
r 64.362938363 _1_ RTR  --- 98 ack 40 [0 0 0 0] ------- [1:1 0:1 32 0] [36 0] 0 1
s 64.362938363 _1_ RTR  --- 98 ack 60 [0 0 0 0] ------- [1:1 0:1 32 0] [36 0] 0 1
r 64.365324494 _0_ AGT  --- 88 ack 60 [13a 0 1 800] ------- [1:1 0:1 32 0] [33 0] 1 1
s 64.365324494 _0_ AGT  --- 99 tcp 1040 [0 0 0 0] ------- [0:1 1:1 32 0] [41 0] 0 1
r 64.365324494 _0_ RTR  --- 99 tcp 1040 [0 0 0 0] ------- [0:1 1:1 32 0] [41 0] 0 1
s 64.365324494 _0_ RTR  --- 99 tcp 1060 [0 0 0 0] ------- [0:1 1:1 32 1] [41 0] 0 1
r 64.367351334 _0_ AGT  --- 91 ack 60 [13a 0 1 800] ------- [1:1 0:1 32 0] [34 0] 1 1
s 64.367351334 _0_ AGT  --- 100 tcp 1040 [0 0 0 0] ------- [0:1 1:1 32 0] [42 0] 0 1
r 64.367351334 _0_ RTR  --- 100 tcp 1040 [0 0 0 0] ------- [0:1 1:1 32 0] [42 0] 0 1
s 64.367351334 _0_ RTR  --- 100 tcp 1060 [0 0 0 0] ------- [0:1 1:1 32 1] [42 0] 0 1
r 64.377457464 _1_ AGT  --- 93 tcp 1060 [13a 1 0 800] ------- [0:1 1:1 32 1] [37 0] 1 1
s 64.377457464 _1_ AGT  --- 101 ack 40 [0 0 0 0] ------- [1:1 0:1 32 0] [37 0] 0 1
r 64.377457464 _1_ RTR  --- 101 ack 40 [0 0 0 0] ------- [1:1 0:1 32 0] [37 0] 0 1
s 64.377457464 _1_ RTR  --- 101 ack 60 [0 0 0 0] ------- [1:1 0:1 32 0] [37 0] 0 1
r 64.387804305 _1_ AGT  --- 95 tcp 1060 [13a 1 0 800] ------- [0:1 1:1 32 1] [38 0] 1 1
s 64.387804305 _1_ AGT  --- 102 ack 40 [0 0 0 0] ------- [1:1 0:1 32 0] [38 0] 0 1