n -t * -s 0  -x 83.364418416244007 -y 239.43800983126101 -Z 0 -z 20  -v circle -c black
n -t * -s 1  -x 257.04629832315698 -y 345.35773177920402 -Z 0 -z 20  -v circle -c black
n -t * -s 2  -x 591.25656009383295 -y 199.37330681680399 -Z 0 -z 20  -v circle -c black
V -t * -v 1.0a5 -a 0
W -t * -x 670 -y 670
A -t * -n 1 -p 0 -o 0x7fffffff -c 30 -a 1
A -t * -h 1 -m 1073741823 -s 0
+ -t 0.036400876 -s 0 -d -1 -p message -e 32 -c 2 -a 0 -i 0 -k RTR 
- -t 0.036400876 -s 0 -d -1 -p message -e 32 -c 2 -a 0 -i 0 -k RTR
h -t 0.036400876 -s 0 -d -1 -p message -e 32 -c 2 -a 0 -i 0 -k RTR
+ -t 0.182633994 -s 1 -d -1 -p message -e 32 -c 2 -a 0 -i 1 -k RTR 
- -t 0.182633994 -s 1 -d -1 -p message -e 32 -c 2 -a 0 -i 1 -k RTR
h -t 0.182633994 -s 1 -d -1 -p message -e 32 -c 2 -a 0 -i 1 -k RTR
+ -t 0.882774710 -s 2 -d -1 -p message -e 32 -c 2 -a 0 -i 2 -k RTR 
- -t 0.882774710 -s 2 -d -1 -p message -e 32 -c 2 -a 0 -i 2 -k RTR
h -t 0.882774710 -s 2 -d -1 -p message -e 32 -c 2 -a 0 -i 2 -k RTR
n -t 10.000000 -s 0 -x 5.000000 -y 2.000000 -U 0.683941 -V 0.729537 -T 21.931712
+ -t 10.000000000 -s 0 -d -1 -p tcp -e 40 -c 2 -a 0 -i 3 -k AGT 
- -t 10.000000000 -s 0 -d -1 -p tcp -e 40 -c 2 -a 0 -i 3 -k AGT
h -t 10.000000000 -s 0 -d -1 -p tcp -e 40 -c 2 -a 0 -i 3 -k AGT
+ -t 12.456252532 -s 0 -d -1 -p message -e 32 -c 2 -a 0 -i 4 -k RTR 
- -t 12.456252532 -s 0 -d -1 -p message -e 32 -c 2 -a 0 -i 4 -k RTR
h -t 12.456252532 -s 0 -d -1 -p message -e 32 -c 2 -a 0 -i 4 -k RTR
+ -t 12.588779220 -s 1 -d -1 -p message -e 32 -c 2 -a 0 -i 5 -k RTR 
- -t 12.588779220 -s 1 -d -1 -p message -e 32 -c 2 -a 0 -i 5 -k RTR
h -t 12.588779220 -s 1 -d -1 -p message -e 32 -c 2 -a 0 -i 5 -k RTR
+ -t 13.000000000 -s 0 -d -1 -p tcp -e 40 -c 2 -a 0 -i 6 -k AGT 
- -t 13.000000000 -s 0 -d -1 -p tcp -e 40 -c 2 -a 0 -i 6 -k AGT
h -t 13.000000000 -s 0 -d -1 -p tcp -e 40 -c 2 -a 0 -i 6 -k AGT
+ -t 14.537261645 -s 2 -d -1 -p message -e 32 -c 2 -a 0 -i 7 -k RTR 
- -t 14.537261645 -s 2 -d -1 -p message -e 32 -c 2 -a 0 -i 7 -k RTR
h -t 14.537261645 -s 2 -d -1 -p message -e 32 -c 2 -a 0 -i 7 -k RTR
+ -t 19.000000000 -s 0 -d -1 -p tcp -e 40 -c 2 -a 0 -i 8 -k AGT 
- -t 19.000000000 -s 0 -d -1 -p tcp -e 40 -c 2 -a 0 -i 8 -k AGT
h -t 19.000000000 -s 0 -d -1 -p tcp -e 40 -c 2 -a 0 -i 8 -k AGT
+ -t 24.359707261 -s 0 -d -1 -p message -e 32 -c 2 -a 0 -i 9 -k RTR 
- -t 24.359707261 -s 0 -d -1 -p message -e 32 -c 2 -a 0 -i 9 -k RTR
h -t 24.359707261 -s 0 -d -1 -p message -e 32 -c 2 -a 0 -i 9 -k RTR
+ -t 24.810743937 -s 1 -d -1 -p message -e 32 -c 2 -a 0 -i 10 -k RTR 
- -t 24.810743937 -s 1 -d -1 -p message -e 32 -c 2 -a 0 -i 10 -k RTR
h -t 24.810743937 -s 1 -d -1 -p message -e 32 -c 2 -a 0 -i 10 -k RTR
+ -t 28.382793183 -s 2 -d -1 -p message -e 32 -c 2 -a 0 -i 11 -k RTR 
- -t 28.382793183 -s 2 -d -1 -p message -e 32 -c 2 -a 0 -i 11 -k RTR
h -t 28.382793183 -s 2 -d -1 -p message -e 32 -c 2 -a 0 -i 11 -k RTR
+ -t 31.000000000 -s 0 -d -1 -p tcp -e 40 -c 2 -a 0 -i 12 -k AGT 
- -t 31.000000000 -s 0 -d -1 -p tcp -e 40 -c 2 -a 0 -i 12 -k AGT
h -t 31.000000000 -s 0 -d -1 -p tcp -e 40 -c 2 -a 0 -i 12 -k AGT
n -t 33.000000 -s 0 -x 20.000000 -y 18.000000 -U 4.861253 -V 18.526670 -T 14.330403
+ -t 36.521045250 -s 0 -d -1 -p message -e 32 -c 2 -a 0 -i 13 -k RTR 
- -t 36.521045250 -s 0 -d -1 -p message -e 32 -c 2 -a 0 -i 13 -k RTR
h -t 36.521045250 -s 0 -d -1 -p message -e 32 -c 2 -a 0 -i 13 -k RTR
+ -t 39.452617400 -s 1 -d -1 -p message -e 32 -c 2 -a 0 -i 14 -k RTR 
- -t 39.452617400 -s 1 -d -1 -p message -e 32 -c 2 -a 0 -i 14 -k RTR
h -t 39.452617400 -s 1 -d -1 -p message -e 32 -c 2 -a 0 -i 14 -k RTR
+ -t 40.333940701 -s 2 -d -1 -p message -e 32 -c 2 -a 0 -i 15 -k RTR 
- -t 40.333940701 -s 2 -d -1 -p message -e 32 -c 2 -a 0 -i 15 -k RTR
h -t 40.333940701 -s 2 -d -1 -p message -e 32 -c 2 -a 0 -i 15 -k RTR
+ -t 48.184867447 -s 0 -d -1 -p message -e 32 -c 2 -a 0 -i 16 -k RTR 
- -t 48.184867447 -s 0 -d -1 -p message -e 32 -c 2 -a 0 -i 16 -k RTR
h -t 48.184867447 -s 0 -d -1 -p message -e 32 -c 2 -a 0 -i 16 -k RTR
n -t 50.000000 -s 2 -x 591.256560 -y 199.373307 -U -3.343610 -V -0.434985 -T 66.333489
n -t 50.000000 -s 1 -x 390.000000 -y 385.000000 -U -10.606602 -V -10.606602 -T 34.412530
n -t 51.000000 -s 1 -x 379.393398 -y 374.393398 -U -7.051400 -V -13.136353 -T 22.345464
+ -t 51.958675641 -s 1 -d -1 -p message -e 32 -c 2 -a 0 -i 17 -k RTR 
- -t 51.958675641 -s 1 -d -1 -p message -e 32 -c 2 -a 0 -i 17 -k RTR
h -t 51.958675641 -s 1 -d -1 -p message -e 32 -c 2 -a 0 -i 17 -k RTR
+ -t 54.209122321 -s 2 -d -1 -p message -e 32 -c 2 -a 0 -i 18 -k RTR 
- -t 54.209122321 -s 2 -d -1 -p message -e 32 -c 2 -a 0 -i 18 -k RTR
h -t 54.209122321 -s 2 -d -1 -p message -e 32 -c 2 -a 0 -i 18 -k RTR
+ -t 55.000000000 -s 0 -d -1 -p tcp -e 40 -c 2 -a 0 -i 19 -k AGT 
- -t 55.000000000 -s 0 -d -1 -p tcp -e 40 -c 2 -a 0 -i 19 -k AGT
h -t 55.000000000 -s 0 -d -1 -p tcp -e 40 -c 2 -a 0 -i 19 -k AGT
+ -t 61.522658049 -s 0 -d -1 -p message -e 32 -c 2 -a 0 -i 20 -k RTR 
- -t 61.522658049 -s 0 -d -1 -p message -e 32 -c 2 -a 0 -i 20 -k RTR
h -t 61.522658049 -s 0 -d -1 -p message -e 32 -c 2 -a 0 -i 20 -k RTR
r -t 61.523518784 -s 1 -d -1 -p message -e 32 -c 2 -a 0 -i 20 -k RTR
+ -t 63.912356976 -s 1 -d -1 -p message -e 32 -c 2 -a 0 -i 21 -k RTR 
- -t 63.912356976 -s 1 -d -1 -p message -e 32 -c 2 -a 0 -i 21 -k RTR
h -t 63.912356976 -s 1 -d -1 -p message -e 32 -c 2 -a 0 -i 21 -k RTR
r -t 63.913277688 -s 0 -d -1 -p message -e 32 -c 2 -a 0 -i 21 -k RTR
+ -t 63.913277688 -s 0 -d 1 -p tcp -e 80 -c 2 -a 0 -i 3 -k RTR 
- -t 63.913277688 -s 0 -d 1 -p tcp -e 80 -c 2 -a 0 -i 3 -k RTR
h -t 63.913277688 -s 0 -d 1 -p tcp -e 80 -c 2 -a 0 -i 3 -k RTR
+ -t 63.913277688 -s 0 -d 1 -p tcp -e 80 -c 2 -a 0 -i 6 -k RTR 
- -t 63.913277688 -s 0 -d 1 -p tcp -e 80 -c 2 -a 0 -i 6 -k RTR
h -t 63.913277688 -s 0 -d 1 -p tcp -e 80 -c 2 -a 0 -i 6 -k RTR
d -t 63.913277688 -s 0 -d 1 -p tcp -e 80 -c 2 -a 0 -i 3 -k IFQ
+ -t 63.913277688 -s 0 -d 1 -p tcp -e 80 -c 2 -a 0 -i 8 -k RTR 
- -t 63.913277688 -s 0 -d 1 -p tcp -e 80 -c 2 -a 0 -i 8 -k RTR
h -t 63.913277688 -s 0 -d 1 -p tcp -e 80 -c 2 -a 0 -i 8 -k RTR
d -t 63.913277688 -s 0 -d 1 -p tcp -e 80 -c 2 -a 0 -i 6 -k IFQ
+ -t 63.913277688 -s 0 -d 1 -p tcp -e 80 -c 2 -a 0 -i 12 -k RTR 
- -t 63.913277688 -s 0 -d 1 -p tcp -e 80 -c 2 -a 0 -i 12 -k RTR
h -t 63.913277688 -s 0 -d 1 -p tcp -e 80 -c 2 -a 0 -i 12 -k RTR
d -t 63.913277688 -s 0 -d 1 -p tcp -e 80 -c 2 -a 0 -i 8 -k RTR
d -t 63.913277688 -s 0 -d 1 -p tcp -e 80 -c 2 -a 0 -i 12 -k RTR
+ -t 63.913277688 -s 0 -d 1 -p tcp -e 80 -c 2 -a 0 -i 19 -k RTR 
- -t 63.913277688 -s 0 -d 1 -p tcp -e 80 -c 2 -a 0 -i 19 -k RTR
h -t 63.913277688 -s 0 -d 1 -p tcp -e 80 -c 2 -a 0 -i 19 -k RTR
r -t 63.922798524 -s 1 -d 1 -p tcp -e 80 -c 2 -a 0 -i 19 -k AGT
+ -t 63.922798524 -s 1 -d -1 -p ack -e 40 -c 2 -a 0 -i 22 -k AGT 
- -t 63.922798524 -s 1 -d -1 -p ack -e 40 -c 2 -a 0 -i 22 -k AGT
h -t 63.922798524 -s 1 -d -1 -p ack -e 40 -c 2 -a 0 -i 22 -k AGT
+ -t 63.922798524 -s 1 -d 0 -p ack -e 60 -c 2 -a 0 -i 22 -k RTR 
- -t 63.922798524 -s 1 -d 0 -p ack -e 60 -c 2 -a 0 -i 22 -k RTR
h -t 63.922798524 -s 1 -d 0 -p ack -e 60 -c 2 -a 0 -i 22 -k RTR
r -t 63.929666359 -s 0 -d 0 -p ack -e 60 -c 2 -a 0 -i 22 -k AGT
+ -t 63.929666359 -s 0 -d -1 -p tcp -e 1040 -c 2 -a 0 -i 23 -k AGT 
- -t 63.929666359 -s 0 -d -1 -p tcp -e 1040 -c 2 -a 0 -i 23 -k AGT
h -t 63.929666359 -s 0 -d -1 -p tcp -e 1040 -c 2 -a 0 -i 23 -k AGT
+ -t 63.929666359 -s 0 -d 1 -p tcp -e 1060 -c 2 -a 0 -i 23 -k RTR 
- -t 63.929666359 -s 0 -d 1 -p tcp -e 1060 -c 2 -a 0 -i 23 -k RTR
h -t 63.929666359 -s 0 -d 1 -p tcp -e 1060 -c 2 -a 0 -i 23 -k RTR
r -t 63.939952496 -s 1 -d 1 -p tcp -e 1060 -c 2 -a 0 -i 23 -k AGT
+ -t 63.939952496 -s 1 -d -1 -p ack -e 40 -c 2 -a 0 -i 24 -k AGT 
- -t 63.939952496 -s 1 -d -1 -p ack -e 40 -c 2 -a 0 -i 24 -k AGT
h -t 63.939952496 -s 1 -d -1 -p ack -e 40 -c 2 -a 0 -i 24 -k AGT
+ -t 63.939952496 -s 1 -d 0 -p ack -e 60 -c 2 -a 0 -i 24 -k RTR 
- -t 63.939952496 -s 1 -d 0 -p ack -e 60 -c 2 -a 0 -i 24 -k RTR
h -t 63.939952496 -s 1 -d 0 -p ack -e 60 -c 2 -a 0 -i 24 -k RTR
r -t 63.941958632 -s 0 -d 0 -p ack -e 60 -c 2 -a 0 -i 24 -k AGT
+ -t 63.941958632 -s 0 -d -1 -p tcp -e 1040 -c 2 -a 0 -i 25 -k AGT 
- -t 63.941958632 -s 0 -d -1 -p tcp -e 1040 -c 2 -a 0 -i 25 -k AGT
h -t 63.941958632 -s 0 -d -1 -p tcp -e 1040 -c 2 -a 0 -i 25 -k AGT
+ -t 63.941958632 -s 0 -d 1 -p tcp -e 1060 -c 2 -a 0 -i 25 -k RTR 
- -t 63.941958632 -s 0 -d 1 -p tcp -e 1060 -c 2 -a 0 -i 25 -k RTR
h -t 63.941958632 -s 0 -d 1 -p tcp -e 1060 -c 2 -a 0 -i 25 -k RTR
+ -t 63.941958632 -s 0 -d -1 -p tcp -e 1040 -c 2 -a 0 -i 26 -k AGT 
- -t 63.941958632 -s 0 -d -1 -p tcp -e 1040 -c 2 -a 0 -i 26 -k AGT
h -t 63.941958632 -s 0 -d -1 -p tcp -e 1040 -c 2 -a 0 -i 26 -k AGT
+ -t 63.941958632 -s 0 -d 1 -p tcp -e 1060 -c 2 -a 0 -i 26 -k RTR 
- -t 63.941958632 -s 0 -d 1 -p tcp -e 1060 -c 2 -a 0 -i 26 -k RTR
h -t 63.941958632 -s 0 -d 1 -p tcp -e 1060 -c 2 -a 0 -i 26 -k RTR
r -t 63.952244769 -s 1 -d 1 -p tcp -e 1060 -c 2 -a 0 -i 25 -k AGT
+ -t 63.952244769 -s 1 -d -1 -p ack -e 40 -c 2 -a 0 -i 27 -k AGT 
- -t 63.952244769 -s 1 -d -1 -p ack -e 40 -c 2 -a 0 -i 27 -k AGT
h -t 63.952244769 -s 1 -d -1 -p ack -e 40 -c 2 -a 0 -i 27 -k AGT
+ -t 63.952244769 -s 1 -d 0 -p ack -e 60 -c 2 -a 0 -i 27 -k RTR 
- -t 63.952244769 -s 1 -d 0 -p ack -e 60 -c 2 -a 0 -i 27 -k RTR
h -t 63.952244769 -s 1 -d 0 -p ack -e 60 -c 2 -a 0 -i 27 -k RTR
r -t 63.962271617 -s 1 -d 1 -p tcp -e 1060 -c 2 -a 0 -i 26 -k AGT
+ -t 63.962271617 -s 1 -d -1 -p ack -e 40 -c 2 -a 0 -i 28 -k AGT 
- -t 63.962271617 -s 1 -d -1 -p ack -e 40 -c 2 -a 0 -i 28 -k AGT
h -t 63.962271617 -s 1 -d -1 -p ack -e 40 -c 2 -a 0 -i 28 -k AGT
+ -t 63.962271617 -s 1 -d 0 -p ack -e 60 -c 2 -a 0 -i 28 -k RTR 
- -t 63.962271617 -s 1 -d 0 -p ack -e 60 -c 2 -a 0 -i 28 -k RTR
h -t 63.962271617 -s 1 -d 0 -p ack -e 60 -c 2 -a 0 -i 28 -k RTR
r -t 63.964277754 -s 0 -d 0 -p ack -e 60 -c 2 -a 0 -i 27 -k AGT
+ -t 63.964277754 -s 0 -d -1 -p tcp -e 1040 -c 2 -a 0 -i 29 -k AGT 
- -t 63.964277754 -s 0 -d -1 -p tcp -e 1040 -c 2 -a 0 -i 29 -k AGT
h -t 63.964277754 -s 0 -d -1 -p tcp -e 1040 -c 2 -a 0 -i 29 -k AGT
+ -t 63.964277754 -s 0 -d 1 -p tcp -e 1060 -c 2 -a 0 -i 29 -k RTR 
- -t 63.964277754 -s 0 -d 1 -p tcp -e 1060 -c 2 -a 0 -i 29 -k RTR
h -t 63.964277754 -s 0 -d 1 -p tcp -e 1060 -c 2 -a 0 -i 29 -k RTR
r -t 63.966484602 -s 0 -d 0 -p ack -e 60 -c 2 -a 0 -i 28 -k AGT
+ -t 63.966484602 -s 0 -d -1 -p tcp -e 1040 -c 2 -a 0 -i 30 -k AGT 
- -t 63.966484602 -s 0 -d -1 -p tcp -e 1040 -c 2 -a 0 -i 30 -k AGT
h -t 63.966484602 -s 0 -d -1 -p tcp -e 1040 -c 2 -a 0 -i 30 -k AGT
+ -t 63.966484602 -s 0 -d 1 -p tcp -e 1060 -c 2 -a 0 -i 30 -k RTR 
- -t 63.966484602 -s 0 -d 1 -p tcp -e 1060 -c 2 -a 0 -i 30 -k RTR
h -t 63.966484602 -s 0 -d 1 -p tcp -e 1060 -c 2 -a 0 -i 30 -k RTR
r -t 63.976830738 -s 1 -d 1 -p tcp -e 1060 -c 2 -a 0 -i 29 -k AGT
+ -t 63.976830738 -s 1 -d -1 -p ack -e 40 -c 2 -a 0 -i 31 -k AGT 
- -t 63.976830738 -s 1 -d -1 -p ack -e 40 -c 2 -a 0 -i 31 -k AGT
h -t 63.976830738 -s 1 -d -1 -p ack -e 40 -c 2 -a 0 -i 31 -k AGT
+ -t 63.976830738 -s 1 -d 0 -p ack -e 60 -c 2 -a 0 -i 31 -k RTR 
- -t 63.976830738 -s 1 -d 0 -p ack -e 60 -c 2 -a 0 -i 31 -k RTR
h -t 63.976830738 -s 1 -d 0 -p ack -e 60 -c 2 -a 0 -i 31 -k RTR
r -t 63.978976874 -s 0 -d 0 -p ack -e 60 -c 2 -a 0 -i 31 -k AGT
+ -t 63.978976874 -s 0 -d -1 -p tcp -e 1040 -c 2 -a 0 -i 32 -k AGT 
- -t 63.978976874 -s 0 -d -1 -p tcp -e 1040 -c 2 -a 0 -i 32 -k AGT
h -t 63.978976874 -s 0 -d -1 -p tcp -e 1040 -c 2 -a 0 -i 32 -k AGT
+ -t 63.978976874 -s 0 -d 1 -p tcp -e 1060 -c 2 -a 0 -i 32 -k RTR 
- -t 63.978976874 -s 0 -d 1 -p tcp -e 1060 -c 2 -a 0 -i 32 -k RTR
h -t 63.978976874 -s 0 -d 1 -p tcp -e 1060 -c 2 -a 0 -i 32 -k RTR
+ -t 63.978976874 -s 0 -d -1 -p tcp -e 1040 -c 2 -a 0 -i 33 -k AGT 
- -t 63.978976874 -s 0 -d -1 -p tcp -e 1040 -c 2 -a 0 -i 33 -k AGT
h -t 63.978976874 -s 0 -d -1 -p tcp -e 1040 -c 2 -a 0 -i 33 -k AGT
+ -t 63.978976874 -s 0 -d 1 -p tcp -e 1060 -c 2 -a 0 -i 33 -k RTR 
- -t 63.978976874 -s 0 -d 1 -p tcp -e 1060 -c 2 -a 0 -i 33 -k RTR
h -t 63.978976874 -s 0 -d 1 -p tcp -e 1060 -c 2 -a 0 -i 33 -k RTR
r -t 63.989263010 -s 1 -d 1 -p tcp -e 1060 -c 2 -a 0 -i 30 -k AGT
+ -t 63.989263010 -s 1 -d -1 -p ack -e 40 -c 2 -a 0 -i 34 -k AGT 
- -t 63.989263010 -s 1 -d -1 -p ack -e 40 -c 2 -a 0 -i 34 -k AGT
h -t 63.989263010 -s 1 -d -1 -p ack -e 40 -c 2 -a 0 -i 34 -k AGT
+ -t 63.989263010 -s 1 -d 0 -p ack -e 60 -c 2 -a 0 -i 34 -k RTR 
- -t 63.989263010 -s 1 -d 0 -p ack -e 60 -c 2 -a 0 -i 34 -k RTR
h -t 63.989263010 -s 1 -d 0 -p ack -e 60 -c 2 -a 0 -i 34 -k RTR
r -t 63.991369146 -s 0 -d 0 -p ack -e 60 -c 2 -a 0 -i 34 -k AGT
+ -t 63.991369146 -s 0 -d -1 -p tcp -e 1040 -c 2 -a 0 -i 35 -k AGT 
- -t 63.991369146 -s 0 -d -1 -p tcp -e 1040 -c 2 -a 0 -i 35 -k AGT
h -t 63.991369146 -s 0 -d -1 -p tcp -e 1040 -c 2 -a 0 -i 35 -k AGT
+ -t 63.991369146 -s 0 -d 1 -p tcp -e 1060 -c 2 -a 0 -i 35 -k RTR 
- -t 63.991369146 -s 0 -d 1 -p tcp -e 1060 -c 2 -a 0 -i 35 -k RTR
h -t 63.991369146 -s 0 -d 1 -p tcp -e 1060 -c 2 -a 0 -i 35 -k RTR
r -t 64.001375281 -s 1 -d 1 -p tcp -e 1060 -c 2 -a 0 -i 32 -k AGT
+ -t 64.001375281 -s 1 -d -1 -p ack -e 40 -c 2 -a 0 -i 36 -k AGT 
- -t 64.001375281 -s 1 -d -1 -p ack -e 40 -c 2 -a 0 -i 36 -k AGT
h -t 64.001375281 -s 1 -d -1 -p ack -e 40 -c 2 -a 0 -i 36 -k AGT
+ -t 64.001375281 -s 1 -d 0 -p ack -e 60 -c 2 -a 0 -i 36 -k RTR 
- -t 64.001375281 -s 1 -d 0 -p ack -e 60 -c 2 -a 0 -i 36 -k RTR
h -t 64.001375281 -s 1 -d 0 -p ack -e 60 -c 2 -a 0 -i 36 -k RTR
r -t 64.003521417 -s 0 -d 0 -p ack -e 60 -c 2 -a 0 -i 36 -k AGT
+ -t 64.003521417 -s 0 -d -1 -p tcp -e 1040 -c 2 -a 0 -i 37 -k AGT 
- -t 64.003521417 -s 0 -d -1 -p tcp -e 1040 -c 2 -a 0 -i 37 -k AGT
h -t 64.003521417 -s 0 -d -1 -p tcp -e 1040 -c 2 -a 0 -i 37 -k AGT
+ -t 64.003521417 -s 0 -d 1 -p tcp -e 1060 -c 2 -a 0 -i 37 -k RTR 
- -t 64.003521417 -s 0 -d 1 -p tcp -e 1060 -c 2 -a 0 -i 37 -k RTR
h -t 64.003521417 -s 0 -d 1 -p tcp -e 1060 -c 2 -a 0 -i 37 -k RTR
r -t 64.013587552 -s 1 -d 1 -p tcp -e 1060 -c 2 -a 0 -i 33 -k AGT
+ -t 64.013587552 -s 1 -d -1 -p ack -e 40 -c 2 -a 0 -i 38 -k AGT 
- -t 64.013587552 -s 1 -d -1 -p ack -e 40 -c 2 -a 0 -i 38 -k AGT
h -t 64.013587552 -s 1 -d -1 -p ack -e 40 -c 2 -a 0 -i 38 -k AGT
+ -t 64.013587552 -s 1 -d 0 -p ack -e 60 -c 2 -a 0 -i 38 -k RTR 
- -t 64.013587552 -s 1 -d 0 -p ack -e 60 -c 2 -a 0 -i 38 -k RTR
h -t 64.013587552 -s 1 -d 0 -p ack -e 60 -c 2 -a 0 -i 38 -k RTR
r -t 64.015713688 -s 0 -d 0 -p ack -e 60 -c 2 -a 0 -i 38 -k AGT
+ -t 64.015713688 -s 0 -d -1 -p tcp -e 1040 -c 2 -a 0 -i 39 -k AGT 
- -t 64.015713688 -s 0 -d -1 -p tcp -e 1040 -c 2 -a 0 -i 39 -k AGT
h -t 64.015713688 -s 0 -d -1 -p tcp -e 1040 -c 2 -a 0 -i 39 -k AGT
+ -t 64.015713688 -s 0 -d 1 -p tcp -e 1060 -c 2 -a 0 -i 39 -k RTR 
- -t 64.015713688 -s 0 -d 1 -p tcp -e 1060 -c 2 -a 0 -i 39 -k RTR
h -t 64.015713688 -s 0 -d 1 -p tcp -e 1060 -c 2 -a 0 -i 39 -k RTR
+ -t 64.015713688 -s 0 -d -1 -p tcp -e 1040 -c 2 -a 0 -i 40 -k AGT 
- -t 64.015713688 -s 0 -d -1 -p tcp -e 1040 -c 2 -a 0 -i 40 -k AGT
h -t 64.015713688 -s 0 -d -1 -p tcp -e 1040 -c 2 -a 0 -i 40 -k AGT
+ -t 64.015713688 -s 0 -d 1 -p tcp -e 1060 -c 2 -a 0 -i 40 -k RTR 
- -t 64.015713688 -s 0 -d 1 -p tcp -e 1060 -c 2 -a 0 -i 40 -k RTR
h -t 64.015713688 -s 0 -d 1 -p tcp -e 1060 -c 2 -a 0 -i 40 -k RTR
r -t 64.025939823 -s 1 -d 1 -p tcp -e 1060 -c 2 -a 0 -i 35 -k AGT
+ -t 64.025939823 -s 1 -d -1 -p ack -e 40 -c 2 -a 0 -i 41 -k AGT 
- -t 64.025939823 -s 1 -d -1 -p ack -e 40 -c 2 -a 0 -i 41 -k AGT
h -t 64.025939823 -s 1 -d -1 -p ack -e 40 -c 2 -a 0 -i 41 -k AGT
+ -t 64.025939823 -s 1 -d 0 -p ack -e 60 -c 2 -a 0 -i 41 -k RTR 
- -t 64.025939823 -s 1 -d 0 -p ack -e 60 -c 2 -a 0 -i 41 -k RTR
h -t 64.025939823 -s 1 -d 0 -p ack -e 60 -c 2 -a 0 -i 41 -k RTR
r -t 64.028025958 -s 0 -d 0 -p ack -e 60 -c 2 -a 0 -i 41 -k AGT
+ -t 64.028025958 -s 0 -d -1 -p tcp -e 1040 -c 2 -a 0 -i 42 -k AGT 
- -t 64.028025958 -s 0 -d -1 -p tcp -e 1040 -c 2 -a 0 -i 42 -k AGT
h -t 64.028025958 -s 0 -d -1 -p tcp -e 1040 -c 2 -a 0 -i 42 -k AGT
+ -t 64.028025958 -s 0 -d 1 -p tcp -e 1060 -c 2 -a 0 -i 42 -k RTR 
- -t 64.028025958 -s 0 -d 1 -p tcp -e 1060 -c 2 -a 0 -i 42 -k RTR
h -t 64.028025958 -s 0 -d 1 -p tcp -e 1060 -c 2 -a 0 -i 42 -k RTR
r -t 64.038352093 -s 1 -d 1 -p tcp -e 1060 -c 2 -a 0 -i 37 -k AGT
+ -t 64.038352093 -s 1 -d -1 -p ack -e 40 -c 2 -a 0 -i 43 -k AGT 
- -t 64.038352093 -s 1 -d -1 -p ack -e 40 -c 2 -a 0 -i 43 -k AGT
h -t 64.038352093 -s 1 -d -1 -p ack -e 40 -c 2 -a 0 -i 43 -k AGT
+ -t 64.038352093 -s 1 -d 0 -p ack -e 60 -c 2 -a 0 -i 43 -k RTR 
- -t 64.038352093 -s 1 -d 0 -p ack -e 60 -c 2 -a 0 -i 43 -k RTR
h -t 64.038352093 -s 1 -d 0 -p ack -e 60 -c 2 -a 0 -i 43 -k RTR
r -t 64.040518228 -s 0 -d 0 -p ack -e 60 -c 2 -a 0 -i 43 -k AGT
+ -t 64.040518228 -s 0 -d -1 -p tcp -e 1040 -c 2 -a 0 -i 44 -k AGT 
- -t 64.040518228 -s 0 -d -1 -p tcp -e 1040 -c 2 -a 0 -i 44 -k AGT
h -t 64.040518228 -s 0 -d -1 -p tcp -e 1040 -c 2 -a 0 -i 44 -k AGT
+ -t 64.040518228 -s 0 -d 1 -p tcp -e 1060 -c 2 -a 0 -i 44 -k RTR 
- -t 64.040518228 -s 0 -d 1 -p tcp -e 1060 -c 2 -a 0 -i 44 -k RTR
h -t 64.040518228 -s 0 -d 1 -p tcp -e 1060 -c 2 -a 0 -i 44 -k RTR
r -t 64.050664363 -s 1 -d 1 -p tcp -e 1060 -c 2 -a 0 -i 39 -k AGT
+ -t 64.050664363 -s 1 -d -1 -p ack -e 40 -c 2 -a 0 -i 45 -k AGT 
- -t 64.050664363 -s 1 -d -1 -p ack -e 40 -c 2 -a 0 -i 45 -k AGT
h -t 64.050664363 -s 1 -d -1 -p ack -e 40 -c 2 -a 0 -i 45 -k AGT
+ -t 64.050664363 -s 1 -d 0 -p ack -e 60 -c 2 -a 0 -i 45 -k RTR 
- -t 64.050664363 -s 1 -d 0 -p ack -e 60 -c 2 -a 0 -i 45 -k RTR
h -t 64.050664363 -s 1 -d 0 -p ack -e 60 -c 2 -a 0 -i 45 -k RTR
r -t 64.052670498 -s 0 -d 0 -p ack -e 60 -c 2 -a 0 -i 45 -k AGT
+ -t 64.052670498 -s 0 -d -1 -p tcp -e 1040 -c 2 -a 0 -i 46 -k AGT 
- -t 64.052670498 -s 0 -d -1 -p tcp -e 1040 -c 2 -a 0 -i 46 -k AGT
h -t 64.052670498 -s 0 -d -1 -p tcp -e 1040 -c 2 -a 0 -i 46 -k AGT
+ -t 64.052670498 -s 0 -d 1 -p tcp -e 1060 -c 2 -a 0 -i 46 -k RTR 
- -t 64.052670498 -s 0 -d 1 -p tcp -e 1060 -c 2 -a 0 -i 46 -k RTR
h -t 64.052670498 -s 0 -d 1 -p tcp -e 1060 -c 2 -a 0 -i 46 -k RTR
r -t 64.062676633 -s 1 -d 1 -p tcp -e 1060 -c 2 -a 0 -i 40 -k AGT
+ -t 64.062676633 -s 1 -d -1 -p ack -e 40 -c 2 -a 0 -i 47 -k AGT 
- -t 64.062676633 -s 1 -d -1 -p ack -e 40 -c 2 -a 0 -i 47 -k AGT
h -t 64.062676633 -s 1 -d -1 -p ack -e 40 -c 2 -a 0 -i 47 -k AGT
+ -t 64.062676633 -s 1 -d 0 -p ack -e 60 -c 2 -a 0 -i 47 -k RTR 
- -t 64.062676633 -s 1 -d 0 -p ack -e 60 -c 2 -a 0 -i 47 -k RTR
h -t 64.062676633 -s 1 -d 0 -p ack -e 60 -c 2 -a 0 -i 47 -k RTR
r -t 64.072763479 -s 1 -d 1 -p tcp -e 1060 -c 2 -a 0 -i 42 -k AGT
+ -t 64.072763479 -s 1 -d -1 -p ack -e 40 -c 2 -a 0 -i 48 -k AGT 
- -t 64.072763479 -s 1 -d -1 -p ack -e 40 -c 2 -a 0 -i 48 -k AGT
h -t 64.072763479 -s 1 -d -1 -p ack -e 40 -c 2 -a 0 -i 48 -k AGT
+ -t 64.072763479 -s 1 -d 0 -p ack -e 60 -c 2 -a 0 -i 48 -k RTR 
- -t 64.072763479 -s 1 -d 0 -p ack -e 60 -c 2 -a 0 -i 48 -k RTR
h -t 64.072763479 -s 1 -d 0 -p ack -e 60 -c 2 -a 0 -i 48 -k RTR
r -t 64.082750325 -s 1 -d 1 -p tcp -e 1060 -c 2 -a 0 -i 44 -k AGT
+ -t 64.082750325 -s 1 -d -1 -p ack -e 40 -c 2 -a 0 -i 49 -k AGT 
- -t 64.082750325 -s 1 -d -1 -p ack -e 40 -c 2 -a 0 -i 49 -k AGT
h -t 64.082750325 -s 1 -d -1 -p ack -e 40 -c 2 -a 0 -i 49 -k AGT
+ -t 64.082750325 -s 1 -d 0 -p ack -e 60 -c 2 -a 0 -i 49 -k RTR 
- -t 64.082750325 -s 1 -d 0 -p ack -e 60 -c 2 -a 0 -i 49 -k RTR
h -t 64.082750325 -s 1 -d 0 -p ack -e 60 -c 2 -a 0 -i 49 -k RTR
r -t 64.092797171 -s 1 -d 1 -p tcp -e 1060 -c 2 -a 0 -i 46 -k AGT
+ -t 64.092797171 -s 1 -d -1 -p ack -e 40 -c 2 -a 0 -i 50 -k AGT 
- -t 64.092797171 -s 1 -d -1 -p ack -e 40 -c 2 -a 0 -i 50 -k AGT
h -t 64.092797171 -s 1 -d -1 -p ack -e 40 -c 2 -a 0 -i 50 -k AGT
+ -t 64.092797171 -s 1 -d 0 -p ack -e 60 -c 2 -a 0 -i 50 -k RTR 
- -t 64.092797171 -s 1 -d 0 -p ack -e 60 -c 2 -a 0 -i 50 -k RTR
h -t 64.092797171 -s 1 -d 0 -p ack -e 60 -c 2 -a 0 -i 50 -k RTR
r -t 64.094883305 -s 0 -d 0 -p ack -e 60 -c 2 -a 0 -i 47 -k AGT
+ -t 64.094883305 -s 0 -d -1 -p tcp -e 1040 -c 2 -a 0 -i 51 -k AGT 
- -t 64.094883305 -s 0 -d -1 -p tcp -e 1040 -c 2 -a 0 -i 51 -k AGT
h -t 64.094883305 -s 0 -d -1 -p tcp -e 1040 -c 2 -a 0 -i 51 -k AGT
+ -t 64.094883305 -s 0 -d 1 -p tcp -e 1060 -c 2 -a 0 -i 51 -k RTR 
- -t 64.094883305 -s 0 -d 1 -p tcp -e 1060 -c 2 -a 0 -i 51 -k RTR
h -t 64.094883305 -s 0 -d 1 -p tcp -e 1060 -c 2 -a 0 -i 51 -k RTR
r -t 64.105309439 -s 1 -d 1 -p tcp -e 1060 -c 2 -a 0 -i 51 -k AGT
+ -t 64.105309439 -s 1 -d -1 -p ack -e 40 -c 2 -a 0 -i 52 -k AGT 
- -t 64.105309439 -s 1 -d -1 -p ack -e 40 -c 2 -a 0 -i 52 -k AGT
h -t 64.105309439 -s 1 -d -1 -p ack -e 40 -c 2 -a 0 -i 52 -k AGT
+ -t 64.105309439 -s 1 -d 0 -p ack -e 60 -c 2 -a 0 -i 52 -k RTR 
- -t 64.105309439 -s 1 -d 0 -p ack -e 60 -c 2 -a 0 -i 52 -k RTR
h -t 64.105309439 -s 1 -d 0 -p ack -e 60 -c 2 -a 0 -i 52 -k RTR
r -t 64.107475573 -s 0 -d 0 -p ack -e 60 -c 2 -a 0 -i 48 -k AGT
+ -t 64.107475573 -s 0 -d -1 -p tcp -e 1040 -c 2 -a 0 -i 53 -k AGT 
- -t 64.107475573 -s 0 -d -1 -p tcp -e 1040 -c 2 -a 0 -i 53 -k AGT
h -t 64.107475573 -s 0 -d -1 -p tcp -e 1040 -c 2 -a 0 -i 53 -k AGT
+ -t 64.107475573 -s 0 -d 1 -p tcp -e 1060 -c 2 -a 0 -i 53 -k RTR 
- -t 64.107475573 -s 0 -d 1 -p tcp -e 1060 -c 2 -a 0 -i 53 -k RTR
h -t 64.107475573 -s 0 -d 1 -p tcp -e 1060 -c 2 -a 0 -i 53 -k RTR
+ -t 64.107475573 -s 0 -d -1 -p tcp -e 1040 -c 2 -a 0 -i 54 -k AGT 
- -t 64.107475573 -s 0 -d -1 -p tcp -e 1040 -c 2 -a 0 -i 54 -k AGT
h -t 64.107475573 -s 0 -d -1 -p tcp -e 1040 -c 2 -a 0 -i 54 -k AGT
+ -t 64.107475573 -s 0 -d 1 -p tcp -e 1060 -c 2 -a 0 -i 54 -k RTR 
- -t 64.107475573 -s 0 -d 1 -p tcp -e 1060 -c 2 -a 0 -i 54 -k RTR
h -t 64.107475573 -s 0 -d 1 -p tcp -e 1060 -c 2 -a 0 -i 54 -k RTR
r -t 64.109482418 -s 0 -d 0 -p ack -e 60 -c 2 -a 0 -i 49 -k AGT
+ -t 64.109482418 -s 0 -d -1 -p tcp -e 1040 -c 2 -a 0 -i 55 -k AGT 
- -t 64.109482418 -s 0 -d -1 -p tcp -e 1040 -c 2 -a 0 -i 55 -k AGT
h -t 64.109482418 -s 0 -d -1 -p tcp -e 1040 -c 2 -a 0 -i 55 -k AGT
+ -t 64.109482418 -s 0 -d 1 -p tcp -e 1060 -c 2 -a 0 -i 55 -k RTR 
- -t 64.109482418 -s 0 -d 1 -p tcp -e 1060 -c 2 -a 0 -i 55 -k RTR
h -t 64.109482418 -s 0 -d 1 -p tcp -e 1060 -c 2 -a 0 -i 55 -k RTR
r -t 64.111489263 -s 0 -d 0 -p ack -e 60 -c 2 -a 0 -i 50 -k AGT
+ -t 64.111489263 -s 0 -d -1 -p tcp -e 1040 -c 2 -a 0 -i 56 -k AGT 
- -t 64.111489263 -s 0 -d -1 -p tcp -e 1040 -c 2 -a 0 -i 56 -k AGT
h -t 64.111489263 -s 0 -d -1 -p tcp -e 1040 -c 2 -a 0 -i 56 -k AGT
+ -t 64.111489263 -s 0 -d 1 -p tcp -e 1060 -c 2 -a 0 -i 56 -k RTR 
- -t 64.111489263 -s 0 -d 1 -p tcp -e 1060 -c 2 -a 0 -i 56 -k RTR
h -t 64.111489263 -s 0 -d 1 -p tcp -e 1060 -c 2 -a 0 -i 56 -k RTR
r -t 64.113536108 -s 0 -d 0 -p ack -e 60 -c 2 -a 0 -i 52 -k AGT
+ -t 64.113536108 -s 0 -d -1 -p tcp -e 1040 -c 2 -a 0 -i 57 -k AGT 
- -t 64.113536108 -s 0 -d -1 -p tcp -e 1040 -c 2 -a 0 -i 57 -k AGT
h -t 64.113536108 -s 0 -d -1 -p tcp -e 1040 -c 2 -a 0 -i 57 -k AGT
+ -t 64.113536108 -s 0 -d 1 -p tcp -e 1060 -c 2 -a 0 -i 57 -k RTR 
- -t 64.113536108 -s 0 -d 1 -p tcp -e 1060 -c 2 -a 0 -i 57 -k RTR
h -t 64.113536108 -s 0 -d 1 -p tcp -e 1060 -c 2 -a 0 -i 57 -k RTR
r -t 64.123682242 -s 1 -d 1 -p tcp -e 1060 -c 2 -a 0 -i 53 -k AGT
+ -t 64.123682242 -s 1 -d -1 -p ack -e 40 -c 2 -a 0 -i 58 -k AGT 
- -t 64.123682242 -s 1 -d -1 -p ack -e 40 -c 2 -a 0 -i 58 -k AGT
h -t 64.123682242 -s 1 -d -1 -p ack -e 40 -c 2 -a 0 -i 58 -k AGT
+ -t 64.123682242 -s 1 -d 0 -p ack -e 60 -c 2 -a 0 -i 58 -k RTR 
- -t 64.123682242 -s 1 -d 0 -p ack -e 60 -c 2 -a 0 -i 58 -k RTR
h -t 64.123682242 -s 1 -d 0 -p ack -e 60 -c 2 -a 0 -i 58 -k RTR
r -t 64.133689087 -s 1 -d 1 -p tcp -e 1060 -c 2 -a 0 -i 54 -k AGT
+ -t 64.133689087 -s 1 -d -1 -p ack -e 40 -c 2 -a 0 -i 59 -k AGT 
- -t 64.133689087 -s 1 -d -1 -p ack -e 40 -c 2 -a 0 -i 59 -k AGT
h -t 64.133689087 -s 1 -d -1 -p ack -e 40 -c 2 -a 0 -i 59 -k AGT
+ -t 64.133689087 -s 1 -d 0 -p ack -e 60 -c 2 -a 0 -i 59 -k RTR 
- -t 64.133689087 -s 1 -d 0 -p ack -e 60 -c 2 -a 0 -i 59 -k RTR
h -t 64.133689087 -s 1 -d 0 -p ack -e 60 -c 2 -a 0 -i 59 -k RTR
r -t 64.143695932 -s 1 -d 1 -p tcp -e 1060 -c 2 -a 0 -i 55 -k AGT
+ -t 64.143695932 -s 1 -d -1 -p ack -e 40 -c 2 -a 0 -i 60 -k AGT 
- -t 64.143695932 -s 1 -d -1 -p ack -e 40 -c 2 -a 0 -i 60 -k AGT
h -t 64.143695932 -s 1 -d -1 -p ack -e 40 -c 2 -a 0 -i 60 -k AGT
+ -t 64.143695932 -s 1 -d 0 -p ack -e 60 -c 2 -a 0 -i 60 -k RTR 
- -t 64.143695932 -s 1 -d 0 -p ack -e 60 -c 2 -a 0 -i 60 -k RTR
h -t 64.143695932 -s 1 -d 0 -p ack -e 60 -c 2 -a 0 -i 60 -k RTR
r -t 64.145762065 -s 0 -d 0 -p ack -e 60 -c 2 -a 0 -i 58 -k AGT
+ -t 64.145762065 -s 0 -d -1 -p tcp -e 1040 -c 2 -a 0 -i 61 -k AGT 
- -t 64.145762065 -s 0 -d -1 -p tcp -e 1040 -c 2 -a 0 -i 61 -k AGT
h -t 64.145762065 -s 0 -d -1 -p tcp -e 1040 -c 2 -a 0 -i 61 -k AGT
+ -t 64.145762065 -s 0 -d 1 -p tcp -e 1060 -c 2 -a 0 -i 61 -k RTR 
- -t 64.145762065 -s 0 -d 1 -p tcp -e 1060 -c 2 -a 0 -i 61 -k RTR
h -t 64.145762065 -s 0 -d 1 -p tcp -e 1060 -c 2 -a 0 -i 61 -k RTR
r -t 64.156068199 -s 1 -d 1 -p tcp -e 1060 -c 2 -a 0 -i 56 -k AGT
+ -t 64.156068199 -s 1 -d -1 -p ack -e 40 -c 2 -a 0 -i 62 -k AGT 
- -t 64.156068199 -s 1 -d -1 -p ack -e 40 -c 2 -a 0 -i 62 -k AGT
h -t 64.156068199 -s 1 -d -1 -p ack -e 40 -c 2 -a 0 -i 62 -k AGT
+ -t 64.156068199 -s 1 -d 0 -p ack -e 60 -c 2 -a 0 -i 62 -k RTR 
- -t 64.156068199 -s 1 -d 0 -p ack -e 60 -c 2 -a 0 -i 62 -k RTR
h -t 64.156068199 -s 1 -d 0 -p ack -e 60 -c 2 -a 0 -i 62 -k RTR
r -t 64.158194332 -s 0 -d 0 -p ack -e 60 -c 2 -a 0 -i 59 -k AGT
+ -t 64.158194332 -s 0 -d -1 -p tcp -e 1040 -c 2 -a 0 -i 63 -k AGT 
- -t 64.158194332 -s 0 -d -1 -p tcp -e 1040 -c 2 -a 0 -i 63 -k AGT
h -t 64.158194332 -s 0 -d -1 -p tcp -e 1040 -c 2 -a 0 -i 63 -k AGT
+ -t 64.158194332 -s 0 -d 1 -p tcp -e 1060 -c 2 -a 0 -i 63 -k RTR 
- -t 64.158194332 -s 0 -d 1 -p tcp -e 1060 -c 2 -a 0 -i 63 -k RTR
h -t 64.158194332 -s 0 -d 1 -p tcp -e 1060 -c 2 -a 0 -i 63 -k RTR
+ -t 64.158194332 -s 0 -d -1 -p tcp -e 1040 -c 2 -a 0 -i 64 -k AGT 
- -t 64.158194332 -s 0 -d -1 -p tcp -e 1040 -c 2 -a 0 -i 64 -k AGT
h -t 64.158194332 -s 0 -d -1 -p tcp -e 1040 -c 2 -a 0 -i 64 -k AGT
+ -t 64.158194332 -s 0 -d 1 -p tcp -e 1060 -c 2 -a 0 -i 64 -k RTR 
- -t 64.158194332 -s 0 -d 1 -p tcp -e 1060 -c 2 -a 0 -i 64 -k RTR
h -t 64.158194332 -s 0 -d 1 -p tcp -e 1060 -c 2 -a 0 -i 64 -k RTR
r -t 64.168440465 -s 1 -d 1 -p tcp -e 1060 -c 2 -a 0 -i 57 -k AGT
+ -t 64.168440465 -s 1 -d -1 -p ack -e 40 -c 2 -a 0 -i 65 -k AGT 
- -t 64.168440465 -s 1 -d -1 -p ack -e 40 -c 2 -a 0 -i 65 -k AGT
h -t 64.168440465 -s 1 -d -1 -p ack -e 40 -c 2 -a 0 -i 65 -k AGT
+ -t 64.168440465 -s 1 -d 0 -p ack -e 60 -c 2 -a 0 -i 65 -k RTR 
- -t 64.168440465 -s 1 -d 0 -p ack -e 60 -c 2 -a 0 -i 65 -k RTR
h -t 64.168440465 -s 1 -d 0 -p ack -e 60 -c 2 -a 0 -i 65 -k RTR
r -t 64.170666598 -s 0 -d 0 -p ack -e 60 -c 2 -a 0 -i 60 -k AGT
+ -t 64.170666598 -s 0 -d -1 -p tcp -e 1040 -c 2 -a 0 -i 66 -k AGT 
- -t 64.170666598 -s 0 -d -1 -p tcp -e 1040 -c 2 -a 0 -i 66 -k AGT
h -t 64.170666598 -s 0 -d -1 -p tcp -e 1040 -c 2 -a 0 -i 66 -k AGT
+ -t 64.170666598 -s 0 -d 1 -p tcp -e 1060 -c 2 -a 0 -i 66 -k RTR 
- -t 64.170666598 -s 0 -d 1 -p tcp -e 1060 -c 2 -a 0 -i 66 -k RTR
h -t 64.170666598 -s 0 -d 1 -p tcp -e 1060 -c 2 -a 0 -i 66 -k RTR
r -t 64.180752731 -s 1 -d 1 -p tcp -e 1060 -c 2 -a 0 -i 61 -k AGT
+ -t 64.180752731 -s 1 -d -1 -p ack -e 40 -c 2 -a 0 -i 67 -k AGT 
- -t 64.180752731 -s 1 -d -1 -p ack -e 40 -c 2 -a 0 -i 67 -k AGT
h -t 64.180752731 -s 1 -d -1 -p ack -e 40 -c 2 -a 0 -i 67 -k AGT
+ -t 64.180752731 -s 1 -d 0 -p ack -e 60 -c 2 -a 0 -i 67 -k RTR 
- -t 64.180752731 -s 1 -d 0 -p ack -e 60 -c 2 -a 0 -i 67 -k RTR
h -t 64.180752731 -s 1 -d 0 -p ack -e 60 -c 2 -a 0 -i 67 -k RTR
r -t 64.182838864 -s 0 -d 0 -p ack -e 60 -c 2 -a 0 -i 62 -k AGT
+ -t 64.182838864 -s 0 -d -1 -p tcp -e 1040 -c 2 -a 0 -i 68 -k AGT 
- -t 64.182838864 -s 0 -d -1 -p tcp -e 1040 -c 2 -a 0 -i 68 -k AGT
h -t 64.182838864 -s 0 -d -1 -p tcp -e 1040 -c 2 -a 0 -i 68 -k AGT
+ -t 64.182838864 -s 0 -d 1 -p tcp -e 1060 -c 2 -a 0 -i 68 -k RTR 
- -t 64.182838864 -s 0 -d 1 -p tcp -e 1060 -c 2 -a 0 -i 68 -k RTR
h -t 64.182838864 -s 0 -d 1 -p tcp -e 1060 -c 2 -a 0 -i 68 -k RTR
r -t 64.185005707 -s 0 -d 0 -p ack -e 60 -c 2 -a 0 -i 65 -k AGT
+ -t 64.185005707 -s 0 -d -1 -p tcp -e 1040 -c 2 -a 0 -i 69 -k AGT 
- -t 64.185005707 -s 0 -d -1 -p tcp -e 1040 -c 2 -a 0 -i 69 -k AGT
h -t 64.185005707 -s 0 -d -1 -p tcp -e 1040 -c 2 -a 0 -i 69 -k AGT
+ -t 64.185005707 -s 0 -d 1 -p tcp -e 1060 -c 2 -a 0 -i 69 -k RTR 
- -t 64.185005707 -s 0 -d 1 -p tcp -e 1060 -c 2 -a 0 -i 69 -k RTR
h -t 64.185005707 -s 0 -d 1 -p tcp -e 1060 -c 2 -a 0 -i 69 -k RTR
r -t 64.187132551 -s 0 -d 0 -p ack -e 60 -c 2 -a 0 -i 67 -k AGT
+ -t 64.187132551 -s 0 -d -1 -p tcp -e 1040 -c 2 -a 0 -i 70 -k AGT 
- -t 64.187132551 -s 0 -d -1 -p tcp -e 1040 -c 2 -a 0 -i 70 -k AGT
h -t 64.187132551 -s 0 -d -1 -p tcp -e 1040 -c 2 -a 0 -i 70 -k AGT
+ -t 64.187132551 -s 0 -d 1 -p tcp -e 1060 -c 2 -a 0 -i 70 -k RTR 
- -t 64.187132551 -s 0 -d 1 -p tcp -e 1060 -c 2 -a 0 -i 70 -k RTR
h -t 64.187132551 -s 0 -d 1 -p tcp -e 1060 -c 2 -a 0 -i 70 -k RTR
r -t 64.197258684 -s 1 -d 1 -p tcp -e 1060 -c 2 -a 0 -i 63 -k AGT
+ -t 64.197258684 -s 1 -d -1 -p ack -e 40 -c 2 -a 0 -i 71 -k AGT 
- -t 64.197258684 -s 1 -d -1 -p ack -e 40 -c 2 -a 0 -i 71 -k AGT
h -t 64.197258684 -s 1 -d -1 -p ack -e 40 -c 2 -a 0 -i 71 -k AGT
+ -t 64.197258684 -s 1 -d 0 -p ack -e 60 -c 2 -a 0 -i 71 -k RTR 
- -t 64.197258684 -s 1 -d 0 -p ack -e 60 -c 2 -a 0 -i 71 -k RTR
h -t 64.197258684 -s 1 -d 0 -p ack -e 60 -c 2 -a 0 -i 71 -k RTR
r -t 64.207245527 -s 1 -d 1 -p tcp -e 1060 -c 2 -a 0 -i 64 -k AGT
+ -t 64.207245527 -s 1 -d -1 -p ack -e 40 -c 2 -a 0 -i 72 -k AGT 
- -t 64.207245527 -s 1 -d -1 -p ack -e 40 -c 2 -a 0 -i 72 -k AGT
h -t 64.207245527 -s 1 -d -1 -p ack -e 40 -c 2 -a 0 -i 72 -k AGT
+ -t 64.207245527 -s 1 -d 0 -p ack -e 60 -c 2 -a 0 -i 72 -k RTR 
- -t 64.207245527 -s 1 -d 0 -p ack -e 60 -c 2 -a 0 -i 72 -k RTR
h -t 64.207245527 -s 1 -d 0 -p ack -e 60 -c 2 -a 0 -i 72 -k RTR
r -t 64.217332370 -s 1 -d 1 -p tcp -e 1060 -c 2 -a 0 -i 66 -k AGT
+ -t 64.217332370 -s 1 -d -1 -p ack -e 40 -c 2 -a 0 -i 73 -k AGT 
- -t 64.217332370 -s 1 -d -1 -p ack -e 40 -c 2 -a 0 -i 73 -k AGT